  1000
  Step: 499900
Cl 109.37 101.20 102.03
Cl  73.42 103.31 140.61
Cl 185.89 114.54 137.00
Cl 107.25 110.00 101.75
Cl  97.97 193.28 102.26
Cl  73.05  83.32 128.91
Cl  99.92 201.16   8.19
Cl 101.30 104.75 101.79
Cl 102.83 100.65 100.74
Cl 104.50 107.25 101.75
Cl 104.56 112.79 101.95
Cl 101.75 107.25 104.50
Cl 155.87  72.04  43.79
Cl 104.53 110.00 104.57
Cl 106.82 101.84  98.27
Cl 110.12 107.50 107.25
Cl 135.51 151.96 183.65
Cl  30.15 131.84  65.30
Cl  66.94 137.45 105.94
Cl 171.23   6.12  97.68
Cl  92.21 176.31  20.57
Cl 119.64  17.50 140.53
Cl 105.20 173.51 148.01
Cl 141.13  30.89 169.70
Cl  55.67  58.85 135.54
Cl  94.86 192.11  21.29
Cl  95.01  93.26 106.42
Cl  70.65  33.66 191.36
Cl  79.56  79.14 170.31
Cl 184.41 183.46  10.29
Cl  20.48 123.82 202.26
Cl  74.61  97.28 181.84
Cl   0.59 157.09 201.52
Cl 100.36  68.06 172.76
Cl 159.08   8.14 193.83
Cl  88.21  62.62 101.26
Cl  98.91 134.76  50.75
Cl  21.10 196.40  32.46
Cl  47.67  99.52  99.58
Cl 155.57  32.37  18.98
Cl 138.31 124.83 154.50
Cl  23.80 189.72  63.15
Cl  26.28 101.05  85.94
Cl 189.55 185.95 153.10
Cl  36.10 108.51   9.61
Cl  77.76 151.33 148.65
Cl  66.15  86.18 180.52
Cl  14.98 181.98 152.57
Cl 117.10  69.47  34.37
Cl 198.17  97.13 186.15
Cl 118.20  52.42 158.94
Cl 179.51  23.61 162.82
Cl  98.85   3.59 188.18
Cl 115.13  13.83 186.54
Cl 201.92 165.59 167.25
Cl 115.24  64.81   0.24
Cl  94.44  40.19 173.12
Cl 194.26  41.12 151.17
Cl  96.02  22.34 121.80
Cl  18.26  86.10 149.85
Cl  74.64 156.01  80.94
Cl  19.90 126.41  26.75
Cl 162.25 194.03  55.11
Cl 168.30 186.04 173.36
Cl  38.09 151.54  38.13
Cl 120.13  42.40  76.76
Cl 179.41  56.94 157.83
Cl 165.34   0.17 198.72
Cl 184.23 173.88 107.58
Cl 159.11  33.07  57.13
Cl 114.95  75.02 116.22
Cl   3.08   7.01  55.37
Cl  35.52  93.34  93.27
Cl  51.05 175.30 103.97
Cl  61.69 115.20  96.57
Cl  57.78 187.32 112.81
Cl  24.68 101.90  62.86
Cl  32.05  25.74 123.99
Cl  76.68  71.98  55.00
Cl 201.15 198.27 196.52
Cl  30.91   5.37 153.48
Cl 145.55 100.91  56.37
Cl 185.94  14.87  24.10
Cl  79.80 128.72  57.17
Cl 106.27 150.07   6.96
Cl  32.33   5.65  56.50
Cl 183.75  93.79 191.94
Cl  43.79  28.60 104.39
Cl  52.64 187.09 125.17
Cl 111.47 200.28 120.87
Cl 111.62  54.62 121.57
Cl  64.21  80.39 179.32
Cl 177.35  56.62  51.52
Cl 122.36 175.54 192.84
Cl   9.74  64.59 106.16
Cl 103.04  23.85 136.62
Cl  31.48  93.43  95.91
Cl  42.37 141.66 119.28
Cl  98.31 180.52 128.86
Cl 173.30 124.51 120.08
Cl  82.85  28.87 138.04
Cl  79.67 158.66  57.61
Cl 100.96  32.47  23.79
Cl 169.82 197.07 154.74
Cl  33.28 135.98 106.19
Cl  27.40 104.39  40.71
Cl 143.22  12.85  93.92
Cl  55.47 121.43  66.38
Cl  29.62 173.66 186.89
Cl  48.48 156.02   1.44
Cl  54.58 107.29  57.15
Cl 161.95  39.02 124.46
Cl 140.48 127.84 133.96
Cl  30.95  41.06 172.47
Cl 172.80 195.10 111.67
Cl  32.25  85.01  16.77
Cl  12.99 201.19 162.75
Cl   3.42   1.74 155.49
Cl  58.04 173.36 190.73
Cl  61.26 104.00 110.07
Cl  89.40   8.46   4.32
Cl 137.00  44.59 153.25
Cl 115.86 165.53  95.61
Cl 157.96 173.26 183.24
Cl 135.96  78.66  65.46
Cl  86.56  24.97 171.45
Cl  46.68 166.55 116.41
Cl 122.78 104.55  63.02
Cl 119.18  47.85  51.66
Cl   6.23  29.74  77.45
Cl  54.64 140.56 137.81
Cl 153.93 167.94  63.52
Cl 202.37 151.34  82.99
Cl 156.19  74.98 198.03
Cl 127.36  20.01 128.24
Cl 163.45  66.59 178.16
Cl  47.70   1.68   9.75
Cl  98.69   5.15 195.70
Cl  63.36 123.58 118.05
Cl  60.42  90.27  35.61
Cl  37.38   8.90  83.77
Cl 185.63 142.50  20.45
Cl 189.82 106.35  74.48
Cl  37.79   5.77 187.32
Cl 183.32 139.85  91.01
Cl  95.08 188.19 175.97
Cl  24.28 133.56  40.54
Cl  71.24  23.34  49.37
Cl 171.75  85.54  67.84
Cl  85.28 124.63 140.62
Cl 117.77  66.14 138.76
Cl 112.38  65.53  46.00
Cl  22.67 187.88 183.55
Cl  77.40 187.39 142.55
Cl 148.92  50.78   2.68
Cl  41.07  31.60 170.77
Cl  12.39 186.77  89.32
Cl  85.40  17.38  55.28
Cl 166.05 114.42  63.46
Cl  83.73 131.09 189.94
Cl 182.39 125.06  19.11
Cl  10.52  68.68  30.91
Cl  54.45   8.65  97.71
Cl  14.24 126.48  39.90
Cl  75.37 108.61 148.09
Cl 129.49 175.84  39.06
Cl  88.62 187.16  81.19
Cl  22.57  76.62 186.44
Cl 185.84 188.69 186.85
Cl 129.02   5.71 164.95
Cl 175.80  81.44 186.47
Cl  42.52 165.59 126.87
Cl   3.43 111.02  76.88
Cl  94.00 187.30  24.57
Cl 165.65  85.78 139.07
Cl   3.78  31.02 120.81
Cl  37.66 137.73 126.84
Cl   9.24 197.24  61.89
Cl  57.24  39.34  99.70
Cl  45.06 163.29  11.87
Cl  34.39  53.00  34.38
Cl  69.62 193.48  68.36
Cl  59.77 143.41 183.45
Cl  21.83 170.36   5.32
Cl  27.20  76.39  11.97
Cl  15.22  25.91 132.90
Cl 147.87 139.94 157.76
Cl 104.55  91.68  99.22
Cl  42.19  59.62 159.20
Cl 178.50  51.62 133.97
Cl  40.96  97.54 184.72
Cl 192.59 153.98 140.82
Cl 118.71 119.64 155.51
Cl  73.16 151.75 162.20
Cl  29.55  70.25  95.60
Cl   9.63 175.79 189.43
Cl 113.57 130.55  12.04
Cl 162.48 171.02   2.05
Cl  13.60  58.65  78.07
Cl 133.01 186.95  31.87
Cl   2.14  70.63  71.99
Cl 188.17  37.26  34.75
Cl 122.16   4.04 114.37
Cl 128.46  43.88 171.28
Cl  52.24  40.85 108.00
Cl  84.98  36.74 183.58
Cl 105.98 120.21 189.69
Cl  12.52  48.73 202.26
Cl 173.73 137.15  40.66
Cl  76.25 124.28 198.89
Cl 168.98 162.60 147.91
Cl  58.95 196.07  92.01
Cl 165.98  80.76  28.75
Cl  83.66 162.87  10.45
Cl 135.50  75.62 164.14
Cl 113.16 190.45  95.76
Cl  58.56  52.96 111.20
Cl 198.89 128.82  50.42
Cl 166.75 171.83  96.55
Cl  20.44  76.38  25.12
Cl 172.25 190.15  46.81
Cl 111.39 104.19 106.33
Cl  31.96 168.49 142.44
Cl  73.00 167.70  95.85
Cl 109.43  19.25  71.17
Cl 146.24  31.46 195.63
Cl 198.89  89.24  43.15
Cl  19.80 198.50 121.82
Cl  52.53 169.66  23.98
Cl  86.41 113.14  97.43
Cl 129.42 196.97 178.43
Cl 109.17 102.41 109.81
Cl 155.31  42.69  84.74
Cl  48.85 166.21 148.52
Cl  30.13  32.03 153.00
Cl  50.57 200.20  64.04
Cl  69.86   0.69 156.68
Cl  77.80   0.24 184.89
Cl 168.43 161.78 180.62
Cl  51.80 167.17 101.60
Cl 127.11 173.01 144.90
Cl  60.03  18.68   1.38
Cl  82.07 127.98 173.85
Cl 133.67  93.63 163.91
Cl 133.93 195.19  97.12
Cl  50.17  70.01 155.88
Cl 170.35   0.75   2.38
Cl  16.78 201.00  22.35
Cl   4.59  12.05  83.09
Cl 180.33   0.64 148.99
Cl  45.06  47.78 145.66
Cl 124.57  95.97  26.29
Cl  18.09  27.97 195.71
Cl  87.73  74.61 108.50
Cl  37.84 140.41 153.39
Cl  77.13 121.01 162.10
Cl  40.32 149.67   5.75
Cl 148.18 108.88  42.70
Cl 174.73  50.16  14.45
Cl 193.69 154.97   6.31
Cl  44.93 169.62 167.62
Cl 163.86  13.90  11.48
Cl  42.32  48.94   5.74
Cl 157.90  53.21   8.31
Cl 159.77  31.70 146.54
Cl 107.90  47.48  92.69
Cl  51.21  68.33 118.73
Cl  26.89  97.24 113.11
Cl 116.41 162.97 170.55
Cl 113.42 102.24 173.08
Cl  14.62 156.84  52.82
Cl 116.24  88.45 136.43
Cl  49.39 183.91  50.00
Cl 168.15 143.37 152.20
Cl  15.35 171.06 139.22
Cl 184.04 129.71  82.53
Cl  74.35  57.60  60.77
Cl 137.16   4.28  29.65
Cl 119.48  69.91   5.52
Cl 193.79 175.52   2.53
Cl  70.41 112.04 157.64
Cl  86.91 185.59 191.92
Cl   7.90  98.01 180.26
Cl  52.89  79.69  16.61
Cl  53.32  76.45  66.30
Cl 194.06   6.76 201.84
Cl 187.99 119.92 146.21
Cl  88.49 116.51 108.81
Cl  13.12 143.76 179.65
Cl 100.70 102.17 104.52
Cl 194.81 162.83 100.93
Cl  65.37 125.29 162.15
Cl  94.53 194.47 108.38
Cl 104.57 131.87  12.41
Cl 130.24 112.51 132.10
Cl 113.14  42.76  16.72
Cl  26.61  69.38 185.39
Cl  91.11 144.36 187.82
Cl  90.77  39.33 107.34
Cl   6.83  32.82  99.66
Cl 152.26  60.29 114.14
Cl 133.75 176.59  72.53
Cl 156.41  15.64  79.21
Cl 124.91  68.34  81.51
Cl   3.38  28.23 125.68
Cl 180.11  23.78  63.79
Cl   9.55 124.99  76.89
Cl 156.14  80.12 190.28
Cl 157.71 167.75  55.81
Cl  71.77  16.84 182.37
Cl 134.28 125.62  15.66
Cl  71.89 197.93  53.42
Cl 102.35 200.61 198.50
Cl  56.07  80.68 100.31
Cl  82.42  92.22 162.54
Cl 200.26  33.72 153.83
Cl  18.97 157.45  17.72
Cl  46.80  99.50  83.67
Cl 106.58  22.50  23.60
Cl  78.54   8.33  92.21
Cl  80.57  63.61 153.83
Cl 134.06   7.92  69.61
Cl 174.03  57.43 198.64
Cl  38.89 110.82  57.37
Cl 146.68 167.07   7.21
Cl  75.07  46.19   1.23
Cl  23.57 134.15 154.59
Cl  18.06 174.78 110.48
Cl 133.65  95.79  28.38
Cl 110.56 117.87  88.34
Cl 155.04 109.50  20.70
Cl  48.34  22.90 159.07
Cl 103.08 161.14 189.41
Cl  43.08  15.17  46.68
Cl 124.12 175.49 172.53
Cl   9.85  88.78 192.46
Cl  74.79  40.65 162.87
Cl  16.09  47.23  14.44
Cl 135.94   1.38  40.53
Cl 109.51 106.95 103.30
Cl  59.99 104.36  73.89
Cl 125.66 193.20  95.94
Cl  78.55 113.47 171.38
Cl  27.18  18.40  10.36
Cl  29.39  48.86 139.90
Cl  58.03  18.86  17.32
Cl 114.09 106.88 199.28
Cl 178.87  70.67  68.22
Cl  25.43 178.51 175.79
Cl 124.22  18.28 117.87
Cl  86.59  50.64 117.43
Cl  27.12  44.86 128.74
Cl 172.76   7.73  22.44
Cl  77.08 129.73 110.19
Cl 173.25  53.28 173.13
Cl 177.31 176.31  76.59
Cl 106.88  43.70 151.69
Cl 151.90  91.77  12.08
Cl  43.15 103.69 196.44
Cl 127.06 132.44 136.40
Cl 179.40  60.85  80.47
Cl  22.69  22.25 104.27
Cl  84.93  42.25  15.85
Cl  12.45  82.90  65.18
Cl 163.52 146.61   5.14
Cl 192.78  16.54 126.94
Cl  29.48 145.81 157.06
Cl  72.06 165.58 153.69
Cl 201.50 113.73 183.81
Cl 166.53 125.80 175.57
Cl 181.72  72.31 106.58
Cl  26.09   3.47  43.25
Cl 190.56 170.36  99.29
Cl  84.94 114.56  19.98
Cl  58.66  75.50 130.32
Cl 184.97  42.67  61.09
Cl  57.47 201.99  67.06
Cl  60.87 123.39 198.68
Cl 136.04 101.96  80.86
Cl 166.62 183.81  92.88
Cl 120.40 163.72  90.08
Cl  65.04 139.34   5.17
Cl 138.80 141.14  35.36
Cl 140.03 125.94 106.61
Cl  79.06  15.11  35.01
Cl 151.25  96.12 187.31
Cl 179.23  49.35  23.28
Cl  82.02 185.79 201.74
Cl  25.90  14.29 172.94
Cl  34.28 103.54 163.99
Cl  84.83  90.71   2.21
Cl  65.61  71.00 191.81
Cl  48.84  82.33  11.97
Cl  62.08  60.86 176.16
Cl  21.62 155.55 136.97
Cl 187.38  66.13 127.71
Cl  23.79 179.09 148.55
Cl  10.26  36.90 156.27
Cl  42.50 100.47 162.23
Cl  85.09  56.82 191.84
Cl   0.48  36.85 181.21
Cl  52.20 169.16  36.21
Cl 189.21 115.18  89.74
Cl 173.05  26.16  52.12
Cl  11.66   0.90  65.88
Cl  21.21 147.73 107.17
Cl  95.39 139.41  70.74
Cl 173.68 147.26 117.07
Cl  60.62 184.84 184.60
Cl 165.21  56.14 148.04
Cl 102.27  15.30  98.69
Cl  79.93 188.19 123.12
Cl 182.61  72.06 124.46
Cl 123.58  82.25 179.47
Cl  97.58 163.57 110.85
Cl  56.68  91.51  83.16
Cl 188.19  69.40  14.89
Cl 137.19 174.11 130.99
Cl 168.19 121.20 157.78
Cl 128.81 122.46 195.92
Cl  86.13 122.73  79.59
Cl   4.38 150.02  65.12
Cl 124.64 135.16 153.46
Cl  82.38  75.15  22.43
Cl 122.99 166.24  46.69
Cl 193.87 153.08  68.89
Cl 126.46  23.71  75.24
Cl  96.72 143.25  73.58
Cl  45.63  86.06  41.59
Cl  79.85 117.75  14.20
Cl 110.85 138.29  96.45
Cl  95.95  12.05  68.79
Cl 144.80  81.27 185.50
Cl  20.29  70.00 152.93
Cl 128.59 127.60 110.21
Cl 134.82 137.32  93.41
Cl 148.93  28.66 114.36
Cl 197.30  42.39  32.16
Cl  94.87 115.54 115.28
Cl 137.06  65.33 146.63
Cl 199.99  42.35 127.30
Cl  91.50 136.79  34.83
Cl 164.84  96.55   7.20
Cl 157.63 165.70 146.73
Cl 171.43  97.57 154.96
Cl 128.29 187.21 189.97
Cl  33.77   2.19  97.22
Cl  25.88 147.98  87.43
Cl  60.92 137.33 110.10
Cl 153.49 134.04 194.72
Cl 183.19  94.07   9.79
Cl  73.43 139.01 135.88
Cl 134.59  33.83 198.02
Cl  58.68 153.95  24.84
Cl  21.93 136.15 114.76
Cl  10.17 138.94 183.98
Cl   9.64  20.81 120.01
Cl  51.92 157.99 136.24
Cl  92.73  63.12 137.19
Cl  92.87 101.46  69.91
Cl 152.90 180.41  74.05
Cl 156.21 139.29 177.58
Cl 155.65 186.64  92.82
Cl 178.58  43.15   7.87
Cl 145.86  71.97 137.61
Cl  41.99 110.13  77.61
Cl  33.80 202.45 137.63
Cl 177.36 187.59  14.23
Cl 101.79  58.08  96.91
Cl  13.24  19.83 181.30
Cl  92.47  72.64 146.76
Cl   6.31 169.71 129.14
Cl  31.61 144.65  76.88
Cl 108.70  35.41 183.57
Cl  40.09 186.17 139.67
Cl   7.05  30.65  18.60
Cl 158.49  17.95 159.68
Cl  53.28 126.20  18.95
Cl  28.75  89.86 130.98
Cl 155.13  96.99  85.39
Cl 107.46 110.38 108.03
Cl  29.27  16.05 199.67
Cl 170.24  22.09  99.09
Cl 111.12 190.11  32.97
Cl  19.85 149.26  69.59
Cl 195.38  66.85  71.35
Cl  66.39 194.45 166.32
Cl  15.65  90.31  56.13
Cl 184.42 168.03  14.26
Cl  28.45  39.45  56.18
Cl 155.02  13.34 114.16
Cl 164.08   0.50 177.53
Cl 143.43  88.75  78.55
Cl  70.49   9.35 186.71
Cl 102.18  62.09 200.51
Cl  86.19 146.44  92.66
Cl 136.99  40.10  80.43
Cl 105.58  32.60  28.44
Cl 150.10  65.89 164.62
Cl 131.08  35.12 100.97
Na 100.48 104.90 104.38
Na 104.50 110.00 101.75
Na 104.50 107.25 104.50
Na 104.27 112.71 104.66
Na 111.82 106.50 105.29
Na   4.12  90.02 185.83
Na  43.60   6.94  31.92
Na 107.55 103.11 100.67
Na  23.93  73.82  63.61
Na 102.70 102.52 102.77
Na 107.25 107.25 101.75
Na  32.38 121.55 161.36
Na  85.04   5.28 105.61
Na 157.73  70.63 190.18
Na 107.25 112.85 102.31
Na 101.75 107.25 101.75
Na 107.10  96.32  70.46
Na 155.46  69.80 172.74
Na 158.87 189.51  95.17
Na  29.93  95.51  28.61
Na   9.60  41.63  72.64
Na 149.78  32.57  63.82
Na 167.67 187.33  34.85
Na  90.95 110.95 152.60
Na  48.86  67.97 168.78
Na 132.88 110.98  39.14
Na  86.25  76.81  60.26
Na  80.76 101.62  77.42
Na 153.24  90.50   4.61
Na  17.74 143.15  85.12
Na  99.46 175.47  30.94
Na 153.47 169.07   7.87
Na  75.20 153.48 183.52
Na  59.11 108.91  30.94
Na 150.60  97.01  98.69
Na  27.83  36.40 140.14
Na   6.32  34.91  95.59
Na   5.69  70.84  54.92
Na 168.40 113.75 160.49
Na  56.91 196.05 114.59
Na  63.49  15.59   3.19
Na  56.94 200.62  62.63
Na 170.93 174.66 147.88
Na  53.68 146.38 195.09
Na 136.83 181.72  97.25
Na 199.40  62.90  24.65
Na  25.99  51.72  10.60
Na   3.67 175.39  36.46
Na 159.42 144.43 156.35
Na 104.71  69.23 102.79
Na 104.63  59.60  56.24
Na  90.39  37.30 189.73
Na   9.36  91.10  65.14
Na 196.07   8.30  31.02
Na 179.30   5.70  89.10
Na  30.02 102.71 194.55
Na 132.52 155.20  84.53
Na  51.21 111.86  78.93
Na  68.39  41.01  10.71
Na  11.97 167.15  15.86
Na 120.34 154.70  89.07
Na 109.20 123.11 183.44
Na 179.67 128.35 138.60
Na 128.74  29.82 121.48
Na  94.65 119.42  19.11
Na 145.47 140.06 151.25
Na  58.99  43.26 122.98
Na 152.93 179.60  71.60
Na 143.83 176.79 144.24
Na 157.87 158.07 176.47
Na 131.73 174.42  38.60
Na  81.84 196.09 195.88
Na  56.86  79.56  34.14
Na  60.80 115.14   6.19
Na  29.48 176.28 172.47
Na  14.20  65.76 115.79
Na 178.60  66.76 136.74
Na  49.34  37.42  90.58
Na  95.82  59.82  22.57
Na  49.83  60.91 185.35
Na  58.66 182.88 112.24
Na 164.60  22.27 154.66
Na   4.45  79.30  17.22
Na 102.38 160.73 174.62
Na  13.02 152.51  92.04
Na 177.72  92.48 171.81
Na  62.64 128.12 152.81
Na 193.13 125.30 170.13
Na 107.20 183.32 118.34
Na  35.32  26.70 128.04
Na 111.79  68.40 147.28
Na   9.37 157.70 131.60
Na  37.41   3.45   3.62
Na  82.68 121.59  50.92
Na 100.73 117.22 173.00
Na  18.37  17.15 178.68
Na 183.92 137.06  61.76
Na 139.16 113.65   7.48
Na  95.65  10.04 156.47
Na 118.80 131.50  31.13
Na 134.00  59.05 154.49
Na 147.39  77.91  67.21
Na 107.32 107.75 107.63
Na  44.67  86.03  93.21
Na 186.83 172.06 154.16
Na  71.66  68.07   0.47
Na 120.15 178.23 152.33
Na  83.56  21.41  56.03
Na 150.52  80.98 150.55
Na  78.40 115.55   5.69
Na 165.67 113.08  86.12
Na  75.17 195.25  73.10
Na 109.70 110.25 106.72
Na 159.50  66.52  35.59
Na 199.59 143.06 192.96
Na 136.46 128.40  39.43
Na 120.96 128.29 140.49
Na 191.06 161.13  64.58
Na 127.38  56.09  11.26
Na 161.61  15.71  31.11
Na 194.88 126.23 103.43
Na  49.93  73.47  96.95
Na  74.26  62.15  58.93
Na 102.03  27.46 133.10
Na 188.51  34.40  39.55
Na  91.65  48.96   5.21
Na  15.98 200.30  42.26
Na  72.80 166.11  98.05
Na  18.81   4.71  60.53
Na  20.18  10.48 162.65
Na  84.64  82.04  77.44
Na  36.64 156.46  78.06
Na  17.54 187.53  45.86
Na  99.50 177.26 200.24
Na 172.66 192.58  51.57
Na  11.86  49.22   2.27
Na  44.60 168.90 150.24
Na  35.79 129.58  42.52
Na 174.38  22.77  49.02
Na 171.63 135.85 176.10
Na 123.49 144.00   1.93
Na 187.94  90.01  36.65
Na  49.59 175.25  67.29
Na 143.76 164.01 113.89
Na  87.11  93.77 180.88
Na  59.88 123.37  13.30
Na   0.56   7.13  68.58
Na 157.76 180.66 122.74
Na 114.94 163.09 139.98
Na  87.10  77.17 141.65
Na  23.59   1.69  62.38
Na 153.93  22.76  94.08
Na  72.10  15.82  87.21
Na 109.91 104.90 108.54
Na 171.22 104.64 151.18
Na  18.83   0.08 167.12
Na 112.95 119.91 198.22
Na 146.13  75.57  82.01
Na  14.05 117.79  49.57
Na  25.25 194.36  41.31
Na 175.34 192.76  41.36
Na  52.79  97.18  92.05
Na  39.13  26.57  97.76
Na  23.79  91.88  78.14
Na 157.46 175.50 148.11
Na  27.99 119.90  53.89
Na  55.11  41.34 108.73
Na 159.67  32.02 126.18
Na 136.15  64.91  43.30
Na 163.62  65.68 126.75
Na  34.93 118.21 122.16
Na  53.79  63.55  85.57
Na 137.21  69.16 126.54
Na  19.38  73.40 143.50
Na 195.28 194.48 145.51
Na  92.85 191.35  85.20
Na  61.53  82.82  66.86
Na 126.60 182.46 190.64
Na   4.22  17.17 106.59
Na  25.77 130.01  94.22
Na  41.56 186.88 141.89
Na 187.56  68.21 117.99
Na 121.85 141.42 188.59
Na 112.62  41.09  14.93
Na 190.15  90.99 129.16
Na 107.02  22.73  20.86
Na  77.93 115.55 173.11
Na  18.66  13.23  48.17
Na 116.94  84.22 104.54
Na  28.09 157.23 117.68
Na 195.85 175.44   0.59
Na 170.29 178.99 105.52
Na 132.33 136.25 108.59
Na  75.51 106.06 146.54
Na 160.17 101.80  22.73
Na 121.69 194.67  76.52
Na  64.13  78.03 201.45
Na 105.40  14.26  73.03
Na  50.36  42.11 158.18
Na 190.19  27.74 123.23
Na 160.36  28.78  24.46
Na  77.64  73.15  35.30
Na 174.49 193.78 180.19
Na  82.93 185.70   4.43
Na 133.51   7.38  66.63
Na 127.59 171.63 147.09
Na  26.71 167.90 139.90
Na 136.36  96.49 130.02
Na  44.53  32.14  47.78
Na  31.01  17.38 107.65
Na 162.01  49.53 138.36
Na  82.87  94.65 161.07
Na 190.11  33.35  94.52
Na 197.06 173.14 195.19
Na   3.19 112.28 180.59
Na 187.20 179.91   2.65
Na 126.68   2.25 123.51
Na 191.40 127.69  73.37
Na  29.09 177.38 139.49
Na 186.47 171.71 104.29
Na  22.00  12.99  21.43
Na   9.22 111.58  88.55
Na  11.36 180.16 150.61
Na  11.65 201.57 141.46
Na  27.96 155.52 178.18
Na  99.93 199.05  86.31
Na  93.34 185.52 180.16
Na 139.12   3.79  88.78
Na  99.08  47.53  43.83
Na   1.24 202.46 181.88
Na   7.06  34.25 161.30
Na 179.24 155.82  88.21
Na   2.90 152.23  24.94
Na  17.41  88.33  56.61
Na 198.01 109.81  16.90
Na  78.56  69.39 154.20
Na   8.02  41.22 138.61
Na  66.47 100.05 138.85
Na  98.33  12.88  67.56
Na 185.06 101.39  58.21
Na 184.46  51.95 116.04
Na  57.16 187.51  80.37
Na 111.27 151.09  86.45
Na  43.88  62.56 112.39
Na 122.59 198.39   4.41
Na  32.55  79.56 163.50
Na  40.50 147.11   1.24
Na  23.81 145.00  41.86
Na 179.40  91.04 197.82
Na 143.16  65.98  66.68
Na  83.48 108.11 150.83
Na  76.72  62.56 112.89
Na  62.05  21.40 178.50
Na  35.82 145.16  17.84
Na 170.56  59.69   1.21
Na 185.26  63.27  64.46
Na 186.19 180.34 112.21
Na 164.92  76.26 148.56
Na  76.63  63.12 133.56
Na  35.92  92.82  21.00
Na  55.40 187.94 124.84
Na 143.43  46.26   1.96
Na  88.00  74.18   2.13
Na  55.79 145.75 133.51
Na  96.33 170.41 109.55
Na  63.46 174.02 195.55
Na  19.10  72.66 199.71
Na  80.35  64.36 122.48
Na  52.00  32.83 123.62
Na  18.86   1.10  65.45
Na  20.70  37.82  59.27
Na 157.68 102.67 172.01
Na  91.18 115.92  12.84
Na  22.17 106.64 153.18
Na  96.70  74.10 148.95
Na  35.24  78.01 149.97
Na 108.42   4.58 124.10
Na 107.65  43.84 154.34
Na 181.78 192.61 132.94
Na  80.66 194.42   1.25
Na 173.08  33.84  99.40
Na 173.05 132.23  66.48
Na  66.87  92.84 181.44
Na 128.42 194.24  35.59
Na  21.82  96.57  77.12
Na  38.43  10.26   1.40
Na  35.33 176.59 112.36
Na 176.46  47.41  11.73
Na 135.58 121.67  16.56
Na 108.05  47.85  24.06
Na  86.57 137.63 202.03
Na  70.81 196.38  62.82
Na  42.00 200.19 140.40
Na  24.41  18.20  82.84
Na 116.47 126.51  87.35
Na   6.30 149.38 174.35
Na 108.97 139.15  94.41
Na  59.66   3.58  16.50
Na  40.09  69.81  34.92
Na 192.90 120.89  85.48
Na 182.19  65.99  45.63
Na 168.98 190.21 116.28
Na 157.94 134.51  37.49
Na 152.94  17.36 170.27
Na 172.59 195.55 166.09
Na 138.63 166.81 188.35
Na 132.95 196.56  36.82
Na 175.94  81.02  60.94
Na  94.53 138.23  65.61
Na  99.88 198.98 121.14
Na  80.21  70.77 163.71
Na  46.00  61.96   6.93
Na  35.98 166.33  52.79
Na  24.11 173.12   1.27
Na 113.86 169.12  42.55
Na 185.81  22.18 128.26
Na 132.33 110.02 169.22
Na  98.96   8.38   6.11
Na 101.83 109.93 105.15
Na 168.73  14.47   2.00
Na  29.18   0.83   7.55
Na 137.13  85.26 184.36
Na 157.80  15.40 128.29
Na  68.87 169.88  84.86
Na  84.45  14.14   2.61
Na 189.05  53.48 120.73
Na 127.40  43.59  97.38
Na  49.13  69.95 118.33
Na 194.94  62.46  95.35
Na 126.22  45.93  49.16
Na 179.55 168.29 131.14
Na 185.83  10.83   2.52
Na  51.04 125.42 179.59
Na  95.61  38.84 196.64
Na  86.74 148.87 181.69
Na  80.96 170.34 152.85
Na  80.09  19.85 136.95
Na 102.31  58.28  91.74
Na  19.37  40.44 183.92
Na 179.49  53.10   1.11
Na  19.68  37.01  11.43
Na 182.21 190.01  46.86
Na 104.70 168.37 110.88
Na  71.82   3.65  38.87
Na 116.22 109.75 192.70
Na  64.74   3.77  90.03
Na 197.39  86.18 134.03
Na  78.07  27.18  14.29
Na  73.30  77.30 173.84
Na 136.09 117.07 119.77
Na  92.22 177.61 142.59
Na 104.96  41.84 146.16
Na  99.58 187.39  91.74
Na   1.31 112.65  77.10
Na 137.34  94.71  61.21
Na  48.66  45.68 149.29
Na 130.03  43.65  38.00
Na  62.40   3.83 165.17
Na 180.54   8.88  86.85
Na   0.32 131.73 160.42
Na 119.15  59.40  64.26
Na  53.95 195.98 199.33
Na 126.46  63.06  80.75
Na 111.71  75.15 197.64
Na  67.51 130.96 105.03
Na  82.12 168.61 176.47
Na 105.50 133.36  10.24
Na 126.29  29.00 179.13
Na  51.37 145.78 133.45
Na 142.79 133.60  97.10
Na  67.75 104.64 177.52
Na 165.23 139.08 148.49
Na 137.94  22.44 163.06
Na  70.67  59.69 177.95
Na 172.82 179.86  84.39
Na   8.88 161.89  48.14
Na  43.10 136.26  94.04
Na  70.03 190.65 175.45
Na  14.27  14.45 130.00
Na 171.53  32.93  73.79
Na  26.32 102.16   3.96
Na 141.03  82.98  14.13
Na 171.05 135.70 100.74
Na 174.06 112.52  49.19
Na  36.10 139.22 125.14
Na  40.65  69.69 157.67
Na  49.25 181.57  54.63
Na  38.12 108.35  57.97
Na 107.04 137.57 164.54
Na 159.87 193.25  13.28
Na  88.81  18.84  50.93
Na  84.85 148.55 150.44
Na  39.60 110.37 146.13
Na 135.77  42.30 126.22
Na 100.94 199.00 187.30
Na  37.14 104.17  98.50
Na  32.84 182.75 182.13
Na  43.66 157.06 111.91
Na  79.53  25.96 173.47
Na 171.78  38.64  14.00
Na 152.52 156.21  22.16
Na 111.01 103.14 111.72
Na   9.87  95.53 194.91
Na  29.68 131.26  72.11
Na  87.16  88.21 144.28
Na 118.77  80.96 155.39
Na 104.17 102.37  99.34
Na  36.11  43.79 171.31
Na 118.33  65.98  37.95
Na  25.89 145.17  44.62
Na 201.13  35.98  99.40
Na  64.18  74.46 137.29
Na 117.27 169.10 124.84
Na 112.77   7.84 187.12
Na 152.34 142.09 192.99
Na 149.31 125.27   8.65
Na 168.04  46.72 157.73
Na 191.50  28.51 193.59
Na  72.32  31.80 166.26
Na 106.03  99.84  96.42
Na  69.69 121.09 121.97
Na  56.20 200.83 146.42
Na  54.87 202.19  66.45
Na  97.65 196.79   4.16
Na 133.65 122.96 136.43
Na  44.73  53.64 159.85
Na 197.29  35.50   2.91
Na 114.69 171.64  93.58
Na 143.54  27.85   0.83
Na  64.12  32.29 114.40
Na  30.50 103.84 153.72
Na  66.85  77.65 181.82
Na   8.82 186.53 191.17
Na   5.35   0.23  48.20
Na 196.86 104.41  97.19
Na   9.21 136.33 184.03
Na 124.10  73.13   2.37
Na  61.85 119.93  98.23
Na 158.86 193.69  93.41
Na  92.26 119.30  81.46
Na   1.68 125.95  15.05
Na 125.20 160.25  94.11
Na 158.64 168.99 185.43
Na  10.97  51.92  26.08
Na 123.40 179.93  50.31
Na  73.20  53.88  54.90
Na 149.44 178.04  72.20
Na 180.98   1.49 111.39
Na 200.00 166.95 161.90
Na  29.86  32.62 157.33
Na  63.30  90.80  98.39
Na  11.60  28.43 120.71
Na  19.46 137.37  32.59
Na 179.96  84.42  73.38
Na 183.83 131.36  35.94
Na 174.85 160.13  47.36
Na 188.14 142.64 121.45
Na 173.21  61.60  75.38
Na  38.52  95.20  87.81
Na 173.61  79.21 194.14
Na  13.57 142.41  51.46
Na 152.81 163.06  64.89
Na  22.72  48.15  77.37
Na 197.31  94.16  36.54
Na 168.18  13.08  20.12
Na  44.23 195.01  33.97
Na 180.30 162.23 150.11
Na 184.51  85.88 144.05
Na  76.75 107.75 107.34
Na  22.52 153.91 134.84
Na  22.63  71.79 185.94
Na 180.40  30.22 162.86
Na  24.89 157.97  84.97
Na 177.88 183.67  64.49
Na   9.70  56.28 180.69
Na  93.66  93.47  20.00
Na  55.69   8.22  93.69
Na 125.01 181.23 176.77
Na 192.51 187.05  13.77
Na  67.26 138.02  86.46
Na  93.44 196.38 103.71
Na   8.17 153.64 124.61
Na  71.13  55.24 100.43
Na 198.01  28.57 134.88
Na  77.83  80.55 124.36
Na  84.62 129.33 175.42
Na  13.89 194.42  76.65
Na 142.83 133.06 140.18
Na 199.21  66.27 143.61
Na  88.60 198.20 174.14
Na   5.92  97.80 115.74
Na 110.46  62.95 121.29
Na  87.23  52.50 184.65
Na 118.17 201.63 118.82
Na 103.57 142.34 116.12
Na 102.56  47.64 167.70
Na  82.11 136.50 150.83
Na 179.21 169.26 107.97
Na 182.35  88.89  82.83
Na  56.82 180.83 167.88
