  1000
  Step: 499900
Cl 107.48  98.66 101.75
Cl 107.09  95.98 104.18
Cl 102.04 107.41  98.77
Cl 112.58 129.06 101.17
Cl 101.67 104.32 101.78
Cl 167.41   0.56 117.18
Cl 104.55 101.62 101.76
Cl 109.25  75.71 184.04
Cl 192.36   8.03 197.31
Cl 106.48  95.32  91.83
Cl 104.79  98.86 104.51
Cl 172.11  52.08 106.38
Cl 109.95 121.47  88.81
Cl 177.00  83.06   5.70
Cl 157.31  27.04 124.44
Cl  82.80   9.41 200.26
Cl  99.00 107.25 101.75
Cl 168.75 198.04  11.39
Cl  86.52 156.91 187.08
Cl  41.69  62.29  66.36
Cl  34.87 196.04 196.18
Cl  49.99  22.55 168.25
Cl  97.20 114.77 137.33
Cl   7.91 109.20 188.53
Cl  52.81  59.10 142.79
Cl  92.22  77.97  79.68
Cl  65.71  39.28  28.81
Cl   0.61  97.26  47.69
Cl  45.94  93.47 149.91
Cl  16.34  69.47 106.46
Cl 120.91 162.64  39.65
Cl 163.57 156.95 196.99
Cl  46.97 170.81  57.69
Cl   8.96   2.66 104.59
Cl 188.86 123.67  13.76
Cl 162.89 193.47  90.54
Cl 136.12 190.64  38.95
Cl 127.79  35.79 166.99
Cl  52.81 152.65 137.34
Cl 136.14 138.32  17.30
Cl 170.51 191.20 175.16
Cl 183.68 123.83  95.23
Cl  25.90 105.79  86.15
Cl  45.80  29.61 190.47
Cl  46.11  99.74  21.21
Cl 112.75 169.61  13.94
Cl 126.69 103.10  74.95
Cl  19.90 177.54 155.25
Cl  19.17 142.94  40.87
Cl  60.44  58.06 132.00
Cl 135.43 147.93 176.49
Cl 113.85  37.78 165.99
Cl   4.13  42.65  35.96
Cl  74.56 182.08  29.82
Cl  78.97  96.82  67.79
Cl  17.54 147.38  74.81
Cl 196.70 179.64  14.33
Cl  95.55 132.73 197.07
Cl  82.15 186.26 128.36
Cl   2.10  88.29 152.33
Cl 193.05  38.68 112.41
Cl  63.44 124.85 147.00
Cl 179.27  54.69 144.92
Cl 180.60  15.46 193.76
Cl  80.04 150.22 161.10
Cl 152.35  53.42  60.52
Cl 102.88 138.24 110.07
Cl  47.10  12.20  68.11
Cl  63.16   4.14  63.38
Cl 128.82 194.05 179.17
Cl 112.98  77.50 121.95
Cl   9.60 153.13  82.33
Cl  83.38 132.47  65.80
Cl  67.42 185.03 184.30
Cl  57.13 177.93 158.25
Cl 171.95 197.65   2.68
Cl 180.29  99.16  56.51
Cl 194.18  98.58 201.75
Cl  49.38  39.83 183.34
Cl  32.14  79.57  64.34
Cl  25.15 150.68 198.07
Cl  49.88  33.82  62.77
Cl 195.96 132.01 182.00
Cl 196.94  67.55   0.65
Cl 127.74   9.69  79.81
Cl  73.90  28.49  57.40
Cl  67.53  31.92   0.30
Cl 147.26  36.88  83.60
Cl  46.05  13.43  11.93
Cl 164.99  24.12  15.35
Cl  38.14  47.53  25.37
Cl 163.09  32.02  90.70
Cl 132.31 142.38   1.99
Cl  17.88 129.30 174.14
Cl 120.20   3.99 144.62
Cl  23.17  81.67 168.06
Cl 124.97  59.47 169.85
Cl  97.80 152.24 123.34
Cl  10.17 126.86 141.00
Cl  61.50 110.77 186.45
Cl   5.88 153.30  49.92
Cl 189.61  33.66  40.64
Cl 138.62  84.41 120.99
Cl  51.34 120.57 144.82
Cl  81.86  59.67 178.60
Cl 196.65 180.23  91.15
Cl 138.68 146.10 103.66
Cl  99.18 108.64  34.82
Cl  86.66 143.49  74.27
Cl 169.04  88.24  19.59
Cl  38.75 168.56  89.98
Cl 111.35 185.33  21.58
Cl 129.79 128.00  97.52
Cl  92.65 169.95 141.21
Cl  94.94 155.97 107.96
Cl  93.59  40.64 128.27
Cl  48.67 138.67  65.00
Cl  36.14  52.86  40.18
Cl 174.79  32.85 170.66
Cl 164.49  97.95  61.21
Cl  52.40  67.50 142.94
Cl 174.30 123.94   0.88
Cl  80.46 117.70 188.87
Cl  54.80 163.25  10.41
Cl  23.22  74.44   9.02
Cl 116.08  32.46   6.14
Cl  37.42 152.52 186.88
Cl 162.75  40.65  68.77
Cl  63.65 189.04   3.09
Cl 145.45  30.83 176.50
Cl 129.99   6.56 147.56
Cl 175.03  58.17 172.78
Cl  34.56 128.04 193.03
Cl   5.31 156.23 182.09
Cl  48.38 127.03 188.35
Cl  40.07  42.26 136.88
Cl  82.09  20.95  87.47
Cl 166.69  77.11 176.61
Cl  56.12  57.57 120.65
Cl 165.77  26.50  97.73
Cl  21.60  85.56  44.96
Cl  86.49 122.45  55.77
Cl 131.20   7.02  19.85
Cl  43.38 156.60  15.32
Cl  81.03 139.28  83.19
Cl  62.24  83.29 199.89
Cl 186.22 157.36  74.19
Cl 148.68  39.77  62.41
Cl 103.54 187.93 108.01
Cl 164.78 126.36 160.64
Cl  58.54 175.09  33.57
Cl  71.84 138.67 114.24
Cl 202.46 120.41  23.78
Cl 193.90  58.69 168.23
Cl  58.87  42.65 133.49
Cl 142.76   0.53 133.65
Cl 140.94 116.09 126.19
Cl 178.89  29.40  67.78
Cl  29.33  63.36  43.49
Cl  40.30 174.54 122.52
Cl 153.24   5.62  75.43
Cl  99.87  22.78  72.88
Cl 158.46 148.94  99.60
Cl   9.46  24.95 103.51
Cl  21.75  94.41 162.06
Cl 178.82 124.37   4.15
Cl  13.55  47.40 176.65
Cl  41.68   3.41 160.81
Cl  45.60 189.91  17.37
Cl  19.19   3.75 114.12
Cl   9.90 142.08  71.20
Cl  97.11 100.20  44.37
Cl 119.52  82.78 178.90
Cl   4.63 101.95   0.20
Cl 202.40 164.76  89.52
Cl  79.36 164.48  40.74
Cl 188.38 190.45 126.48
Cl 200.86  28.62 142.21
Cl 183.69 171.06 143.49
Cl  56.10 133.10 137.29
Cl  97.00 121.00 161.35
Cl  69.60 185.53  76.11
Cl 127.61  72.01 132.51
Cl  95.30  99.80 101.27
Cl  47.50 196.58 196.88
Cl  43.14  60.89 201.80
Cl 132.08  23.54  78.26
Cl  16.73  62.11  26.83
Cl 113.58 137.43  97.91
Cl 180.44 107.08 177.33
Cl  51.86  84.17 151.35
Cl 180.43 163.02 132.92
Cl  21.54 113.60 166.21
Cl 178.49  89.84 105.27
Cl  20.02  19.21 190.01
Cl  45.06 181.41  23.90
Cl 176.92  88.83   3.83
Cl   7.07 186.16  83.58
Cl  65.05 121.80 149.99
Cl 192.83 186.40 132.40
Cl 118.79  43.05 157.42
Cl 176.54 178.29 158.49
Cl  95.36 109.38  99.18
Cl  60.37  23.35 135.18
Cl 103.31 201.99  30.21
Cl  75.83  89.30  84.52
Cl 118.19   5.18  29.79
Cl 176.95 123.56  47.41
Cl 169.98  70.54 124.63
Cl 128.84  14.85  30.19
Cl 152.53 192.29 183.33
Cl 117.70 119.40  35.62
Cl  36.22 151.35 121.99
Cl  35.62  47.00   6.24
Cl 102.11 174.74  90.36
Cl 128.34 128.19 114.56
Cl  54.55 126.55 177.33
Cl 132.36 168.90  93.29
Cl 171.56  23.92 107.24
Cl  57.83 190.17  90.80
Cl 111.62 200.70 197.88
Cl 139.34  54.86 129.57
Cl  86.94  63.30 137.06
Cl  52.46 201.20 178.85
Cl 197.37 129.19  87.58
Cl  34.17 190.20 196.06
Cl 102.74 176.92 197.00
Cl  75.79  24.54  44.53
Cl  50.53 168.55  26.27
Cl 122.05  59.71  14.35
Cl  98.97 101.61 103.21
Cl 163.11  95.31 157.54
Cl  15.06 106.01  51.58
Cl 110.65 154.05 155.19
Cl 175.65 119.69 190.30
Cl 190.71 104.60  75.13
Cl 171.24 198.09 137.45
Cl  22.34   4.71 153.92
Cl 147.31 177.53 143.56
Cl  50.51 171.35 106.56
Cl 187.85 201.50 115.40
Cl  82.26 131.58 125.11
Cl  20.83   7.63  88.57
Cl 177.76 141.83 150.61
Cl 109.34 196.29  53.94
Cl  16.93  41.20   1.23
Cl  54.25  26.14 123.40
Cl   3.77 193.51  32.93
Cl  48.77  77.06  47.31
Cl  88.09  60.97 190.71
Cl   9.30 120.29 199.81
Cl 169.48 117.72  60.64
Cl 127.56 182.31 171.82
Cl 140.02   9.99 107.17
Cl 171.30  11.48 142.19
Cl  10.33  81.27  34.54
Cl 179.18  16.07 124.61
Cl 146.19 111.64  48.92
Cl 179.11 162.78  94.83
Cl 186.84 157.05   1.36
Cl  35.69  59.82 147.89
Cl 134.01 188.37  52.28
Cl 146.71 125.42 142.86
Cl  68.04  77.48  13.55
Cl 106.36  85.22 105.27
Cl  46.95  76.24 116.19
Cl 126.55  48.78 163.59
Cl  96.57  70.23  72.82
Cl  26.90 166.60  86.20
Cl 107.22 104.21 100.94
Cl   2.11  27.99 161.64
Cl 180.06 165.75  55.64
Cl  70.64 129.31  15.78
Cl 150.82 137.95 201.19
Cl  35.57  21.18  99.86
Cl  11.18  26.56 132.13
Cl   9.82 169.98 157.43
Cl 165.25  87.18 111.20
Cl 175.48 126.32  66.75
Cl   4.59 157.57  55.14
Cl  89.33 120.18 163.86
Cl  57.65  81.31  16.42
Cl  79.28  11.84  78.32
Cl 110.17 153.40  71.86
Cl 131.27   1.58 147.04
Cl  88.68 180.72  25.19
Cl 199.85 181.99 188.16
Cl 154.12 122.29 174.74
Cl  35.62 130.93 107.92
Cl 105.02  79.43 169.07
Cl  34.05  93.21  74.60
Cl 106.15 194.15 143.20
Cl 157.00 163.31  74.76
Cl 116.60 142.47   8.22
Cl  90.97 196.81  81.31
Cl  60.89 192.24   4.09
Cl  77.87  15.92 118.88
Cl 161.91 133.24  63.81
Cl   6.95  33.38   8.03
Cl   0.68  20.15 171.42
Cl  63.61 164.04  99.63
Cl 156.02 170.31 113.92
Cl 202.17  84.30  59.07
Cl  72.15  40.60  79.50
Cl 144.29  74.52  95.11
Cl 189.37   3.24  59.98
Cl 137.39  61.98  47.58
Cl 151.24  83.03 190.02
Cl  43.57 163.79 185.59
Cl 189.89 169.11   8.94
Cl  54.69 122.37  49.49
Cl  23.26  19.77  70.25
Cl 107.40 101.44 104.83
Cl 120.64  90.95 148.26
Cl 115.49 181.29 141.23
Cl  88.14 162.33  14.62
Cl 183.54  52.28   6.03
Cl 179.96  23.79 119.00
Cl 190.64  47.30  53.47
Cl  14.83  65.12  47.25
Cl  83.06 101.12 126.12
Cl 139.98  12.82  58.63
Cl 144.61  36.21 139.73
Cl 147.80  57.43 102.88
Cl 118.10  42.13 133.03
Cl 178.40 156.50 135.58
Cl 130.24 124.29 148.95
Cl  15.03 174.04 112.55
Cl 181.04 131.03  68.60
Cl 117.02  71.82 140.69
Cl 198.42  84.51 122.57
Cl 151.19 100.09   7.35
Cl 155.32 146.61  72.80
Cl  75.43  85.70  28.40
Cl  36.54  14.46  92.42
Cl 159.52 128.96  89.04
Cl  47.98 147.98  12.37
Cl  69.89  22.93  82.13
Cl 105.59  50.69 193.19
Cl 175.89 149.36  84.62
Cl 113.16 178.11  34.48
Cl  98.99 149.70  28.30
Cl  38.87 201.14   4.05
Cl  25.85  15.39  11.64
Cl 101.18 168.53 179.77
Cl  52.77  86.43  45.58
Cl 200.68   1.51 147.65
Cl 196.57 101.32  21.76
Cl 103.52 134.56 140.24
Cl  57.68  40.04  32.21
Cl  96.14  52.59 111.71
Cl 116.49  72.45 199.16
Cl  44.87 117.95  69.49
Cl  52.11  31.58  52.86
Cl 100.49  73.78   6.44
Cl 101.65 103.61  96.63
Cl 162.47 162.99 136.24
Cl  29.15 120.71   4.30
Cl   5.23 188.24  19.86
Cl 104.32  96.00 101.54
Cl  70.03 196.61 129.23
Cl  31.03 168.08  22.28
Cl  38.95  66.31  28.73
Cl  35.05 158.07  39.34
Cl  63.40 136.34 114.05
Cl  14.84 148.77 153.31
Cl 125.86 111.23  21.14
Cl  98.47  62.00  53.79
Cl 149.79 129.42  53.66
Cl  67.02 173.21  48.86
Cl  33.98  55.51  89.34
Cl  29.43 137.93 155.66
Cl  27.34 106.27  13.07
Cl  68.60 118.86 162.70
Cl 100.59  84.40 184.23
Cl  54.86 154.84 199.31
Cl 123.33 189.83  60.52
Cl 151.80 101.45 164.04
Cl 167.07 178.40 168.64
Cl  97.76 114.44  78.62
Cl 131.82 158.77  89.31
Cl 101.64 138.75  19.00
Cl 115.27  67.43  81.70
Cl  86.06  25.80 113.28
Cl  94.32  29.99 171.82
Cl  61.48   2.93  35.69
Cl 141.36  85.67 165.18
Cl 194.25  78.48  73.37
Cl  29.29  18.18 172.41
Cl 150.83 171.74 121.27
Cl 105.35  29.58 168.23
Cl  64.01   3.08  40.16
Cl 174.34 146.80  38.99
Cl 116.77  99.20 156.25
Cl  20.98  71.54 160.16
Cl 142.79  10.14   2.59
Cl 174.26 179.08 120.68
Cl  66.20 130.15  26.42
Cl  30.23 113.08   2.23
Cl  83.85  47.40 157.13
Cl 172.99 114.88  29.18
Cl 128.11  19.97 189.36
Cl 143.24 158.87 156.55
Cl 140.48  86.42  21.97
Cl  81.24  87.51  20.18
Cl 191.34  73.39  64.83
Cl 127.61  83.41   6.44
Cl  28.98  12.41  49.55
Cl  51.49   3.20 147.94
Cl 126.59  26.00 130.27
Cl  69.83 102.14   4.90
Cl 152.06 179.12  13.61
Cl 147.87 197.68  17.80
Cl 123.45 129.05  56.58
Cl 182.46 132.48  18.17
Cl   5.92 102.73 163.65
Cl  31.80   8.19  65.87
Cl 175.39  20.99 192.80
Cl  37.75 184.65 172.91
Cl 135.47  98.06   6.34
Cl  28.08 149.90  59.48
Cl  49.81 137.39  40.75
Cl  59.02  31.81  21.26
Cl 138.17  99.63  28.59
Cl 166.62 195.42  71.74
Cl 132.80  22.19  25.23
Cl  98.78   4.51  25.96
Cl 167.02 185.99  64.92
Cl  38.45  84.76  44.31
Cl 140.76 100.41 136.49
Cl  26.98  93.98   3.17
Cl 106.26  11.09  59.95
Cl  45.61 198.92 126.45
Cl  56.36 162.24  27.11
Cl 115.95 161.47  23.80
Cl   7.39 166.86  89.29
Cl 145.03  30.29 108.18
Cl 182.31  30.40 138.37
Cl  64.12  61.86 168.32
Cl  68.65 123.05  18.72
Cl  73.49 138.25 140.88
Cl 136.46  28.84 166.87
Cl 165.44  78.41 157.78
Cl 174.55  97.33 173.63
Cl 144.56 177.80  50.68
Cl 107.12 158.39  96.90
Cl  39.75  73.16 197.72
Cl  27.71   3.02  35.09
Cl  83.82  85.25 161.20
Cl 162.43 172.35 174.72
Cl  95.36 121.88  52.39
Cl  77.19 160.81 162.89
Cl 101.98 165.72  95.00
Cl 138.24  54.71  93.76
Cl  96.48 149.13 133.18
Cl 189.43  44.20  37.66
Cl 109.03 148.56 118.16
Cl  75.10  27.47  82.40
Cl  13.15 193.12  70.24
Cl  45.22 150.94  89.39
Cl  51.49 180.72  10.41
Cl 200.35  26.92 109.27
Cl 137.21  34.55  78.66
Cl  74.16 158.05 123.77
Cl  90.38 125.02 191.69
Cl  95.12  96.52  96.38
Cl 129.87 109.75 177.12
Cl  41.33 140.83 133.46
Cl  92.39 137.68 135.48
Cl 139.59 156.22  37.43
Cl  90.97 164.94  47.62
Cl   6.86 171.40 132.05
Cl 196.07 163.29  96.46
Cl  59.79  88.46 176.23
Cl 134.72  60.10  53.55
Cl 195.01  99.95 101.92
Cl 191.49 139.90  16.70
Cl  67.55 108.13 138.88
Cl 178.29 197.05  12.68
Cl  14.69 176.09  74.19
Cl  73.52  74.06 137.20
Cl 193.39 193.10  44.44
Cl 111.45  96.73  99.66
Cl 197.11  31.67 112.47
Cl 177.62  11.55  63.41
Cl 186.06 118.58 173.95
Cl 172.51 177.86  32.34
Cl  49.20  28.21 136.68
Cl  56.74  42.32  53.68
Cl 146.37 111.30 102.22
Cl 168.72 172.82 100.08
Cl  94.83  30.39  72.77
Cl  53.10 179.19 159.69
Cl 157.12 125.47 134.07
Cl 112.11  69.71  10.29
Cl 163.34  61.67 108.75
Cl 137.37 109.69 109.67
Cl 127.28 186.70  68.88
Cl 198.06  41.88   4.84
Cl 187.28   3.01  97.01
Cl 181.65  72.17  35.35
Cl 158.32  97.43 188.63
Na 104.17  96.25 104.21
Na  97.71  98.99 102.46
Na  99.59 104.88 103.41
Na  99.31 107.15  98.73
Na 162.03  77.96 173.58
Na 106.94  95.88 101.61
Na 102.52 106.17  96.39
Na 101.79 101.46 102.07
Na 165.59  59.81  16.21
Na   4.31 175.58 173.74
Na 101.83 107.16 101.59
Na 104.79  98.89 101.64
Na  95.31 102.59  49.32
Na  48.86   8.28 154.23
Na  28.39  10.90   4.60
Na 133.81 180.55  56.36
Na 128.72  84.60 112.27
Na  17.19  74.53 129.64
Na   4.56  28.55 181.70
Na   7.80 102.73 169.84
Na  67.49 187.68  58.07
Na   6.40  73.02  61.78
Na 191.26 131.57  69.55
Na  55.79  52.74 145.64
Na 182.58  93.47 181.94
Na 128.26 141.94   0.97
Na  30.63 201.34 189.66
Na 107.25 101.62 101.85
Na 189.67 134.20 129.14
Na 194.58  79.88  24.11
Na 131.07  58.74  86.69
Na  29.34 159.88  42.40
Na  73.65  98.94  33.46
Na 125.80   4.78 147.99
Na  65.14 113.85 136.04
Na  99.12 148.35 189.88
Na 200.19 181.06  25.10
Na  24.44  28.47  34.84
Na 135.23 109.12   8.54
Na 102.65  77.71 192.99
Na 188.95  43.76 110.19
Na  97.54  96.53  91.24
Na  80.60 100.53  73.86
Na  51.76  29.55  61.59
Na 167.03 158.95  58.63
Na 134.96 148.09 195.40
Na  69.45 189.86 112.36
Na  97.53 101.41 121.65
Na 106.86  53.83  46.98
Na   6.26  14.78 106.15
Na  14.03  88.87  53.13
Na 194.70   2.84  36.87
Na  74.16  23.74 105.89
Na 107.16 135.37   6.46
Na  40.40 182.08 139.93
Na  99.37 111.03  86.90
Na 170.71 127.02 147.53
Na 173.07 167.58 123.81
Na 148.10  80.64  56.78
Na  95.25   5.32 142.40
Na 157.50 167.02 174.35
Na 106.15  47.55  69.76
Na  20.46 136.79  38.14
Na  43.33  71.01  47.05
Na 131.54  29.49  89.94
Na  50.10 181.32   8.06
Na  14.50 127.67 143.29
Na 112.83  72.15 202.32
Na 183.81 124.73   4.80
Na 126.61  46.50 161.96
Na 149.18  95.67  31.12
Na  59.50 165.49  53.57
Na 158.61 175.55  33.84
Na 118.21  11.04  51.80
Na 109.66 187.14 135.33
Na  50.34 181.50 192.48
Na 117.98  41.49 166.09
Na  30.98  21.51  95.44
Na  70.81  21.31  88.32
Na 137.97  23.65  97.78
Na  96.17   8.09 175.37
Na  68.59  52.93 101.56
Na  47.49 193.36 199.74
Na  67.41 189.91  33.94
Na 152.00   6.68  94.02
Na 144.98 105.87 118.45
Na 102.09   1.81  29.15
Na  56.98 176.81  32.53
Na 197.41  34.66  44.88
Na  50.28  41.84   9.24
Na 111.41 162.44 199.58
Na  71.39 126.91  54.04
Na   6.70 102.69   3.05
Na  34.25 133.59  92.65
Na 127.35   2.52 139.04
Na  49.65  69.80 165.25
Na 179.24  77.96 102.79
Na  50.40  56.93  50.56
Na  31.87 151.97  58.84
Na 162.02  96.22  19.69
Na 176.07 168.03 133.78
Na   7.64   4.44   7.59
Na  54.48 198.99 149.16
Na 144.23  70.06  90.40
Na  74.29  47.47   4.50
Na  38.66  65.90  74.37
Na 189.81  52.61  41.19
Na  21.95  63.16 126.66
Na 196.83  66.34  77.09
Na 161.14   3.57 134.27
Na  87.53 159.09  22.68
Na   0.67 120.56 173.40
Na 165.20 195.44 167.55
Na 176.62   2.71 115.04
Na  65.02  32.32 166.96
Na 170.22  86.34 189.91
Na  68.23   4.38   7.48
Na  66.05  27.90  25.42
Na 147.28 141.03 114.57
Na 190.49 173.10  92.76
Na 158.20 184.85 109.76
Na  58.53  48.73  31.82
Na 154.24  24.49 175.61
Na 152.60 161.57  57.46
Na 115.41  50.94 156.37
Na  91.55  94.25  22.90
Na  69.99  16.39  60.46
Na 123.86 150.05 151.80
Na 138.59 106.63 135.64
Na  39.63  40.51  34.05
Na  56.83  94.12  36.61
Na  83.05 150.11  73.12
Na 103.92 131.29 127.74
Na  84.62 116.17  19.85
Na 138.07 100.53 110.64
Na 190.23  27.31  65.12
Na 115.13 186.52 122.91
Na  17.96  68.84 180.53
Na 173.81 187.91 168.10
Na  98.77 136.60 199.59
Na  87.36  51.29  27.28
Na 145.23 123.30  81.03
Na  12.29 195.45 118.11
Na  56.71 126.68  16.85
Na   4.68 143.93  71.88
Na 128.91 138.50 159.45
Na 170.44   5.48   5.04
Na 174.08  27.69 104.89
Na  90.02 120.34 166.47
Na  89.86  26.32  85.95
Na 116.11  67.67  12.24
Na 114.45  93.38 175.27
Na  84.79 134.52 136.44
Na  51.77  38.90  58.49
Na 148.66  51.45  52.57
Na  58.65 181.51 127.09
Na  14.36 194.28 127.79
Na  96.63  78.87 115.79
Na 180.12   7.51 196.87
Na  20.39 150.46 198.87
Na  75.45  12.11  90.02
Na 102.00  23.85 141.84
Na  97.13  86.79  84.31
Na  36.16 111.79  58.95
Na 132.73 188.62 158.07
Na 191.91 114.10  26.93
Na 141.37 112.97 180.27
Na 169.29  70.46 127.22
Na  62.69 142.60  32.67
Na   1.37 110.68 100.57
Na 108.13 107.49 158.90
Na 109.17 187.94 103.78
Na 195.05 189.86 138.53
Na  37.39  94.24 108.90
Na 110.38 195.29 192.92
Na 200.90  88.26 148.92
Na 124.83 132.37 119.24
Na  18.49 187.51  35.15
Na 134.04  61.58  51.40
Na 124.67   5.27  73.52
Na  24.74 142.15  66.01
Na  59.16 190.42   2.88
Na 127.73  19.45  73.56
Na  77.13 193.10 128.22
Na 143.34  61.20 199.43
Na 184.29  40.68 126.46
Na  17.76  12.95  30.72
Na 201.17 143.30 182.35
Na  57.26 179.64  89.99
Na  76.30 101.73 105.63
Na 115.08 166.58  23.76
Na 122.94  60.73  70.95
Na  50.02  84.32  72.48
Na 191.37  43.22  48.80
Na 181.28 105.37  49.40
Na 177.96  12.57  57.78
Na 200.21 175.36   6.71
Na 120.53 154.57 144.70
Na  96.98 163.73 106.97
Na  81.98 136.58 189.35
Na  14.30 191.70 125.17
Na 100.91  12.89  84.24
Na 138.55   3.63  52.09
Na 150.21 149.93 126.72
Na  18.70 104.68  22.10
Na  48.11 176.00 122.49
Na 134.55  45.39 169.68
Na 112.85  21.48 129.04
Na 161.67 101.08  31.65
Na  75.14 144.31  52.21
Na 171.72  89.70  16.04
Na  93.33 141.90 179.27
Na 163.23  20.71  71.23
Na  82.87  83.80  73.12
Na 118.83 185.03  27.13
Na 194.26 130.20  33.33
Na  46.96 188.43 167.44
Na  69.52 106.95 143.29
Na 120.57  12.41   6.23
Na   7.81 167.75  93.79
Na 160.24 140.99  70.34
Na 160.03  73.11 183.93
Na 140.04  13.98 114.42
Na  48.94 140.09  59.97
Na 123.97  49.91 136.72
Na 164.66  19.23 120.83
Na 106.85 122.23 152.45
Na 118.62 130.49  23.60
Na  61.27 124.54  29.71
Na 174.72 100.14 159.20
Na 131.98 198.07 185.05
Na 100.71 143.82 137.51
Na 190.94  95.41   5.12
Na 144.39 154.25 106.59
Na 174.73  35.80 152.39
Na 114.87 138.66 119.24
Na  46.49  98.04 128.66
Na  67.36  29.21 195.69
Na 178.55 183.50  10.70
Na 196.82  21.26 124.16
Na 167.71 137.60 188.89
Na  35.25  79.76 164.13
Na  81.15 169.16 165.65
Na 162.39 129.03  84.35
Na  14.75 195.21  70.19
Na 174.18 162.83  62.05
Na  83.26 193.54  80.06
Na  45.14 147.47  78.81
Na  92.91  99.38  99.78
Na 188.51  55.09 176.84
Na 196.37 193.61 104.62
Na 192.88  98.19  65.16
Na 111.13 118.53  15.86
Na  57.68  75.59  40.52
Na  10.17  35.01 201.84
Na  19.29  96.60 200.54
Na  80.73 164.63 103.05
Na 171.33 185.53  14.71
Na  44.37  13.93  13.83
Na 165.73 117.92  53.21
Na 105.94  10.45  47.16
Na 196.91 131.08 104.65
Na 110.28  98.82 101.13
Na 147.40  94.14 200.52
Na  60.13  16.55  80.58
Na 104.51 101.72 104.59
Na  42.01 196.37  25.31
Na   4.09 146.59  93.53
Na 199.15  46.23  26.90
Na 100.39 148.84  30.87
Na  99.72 132.20  53.95
Na 184.04 190.94  62.28
Na 165.80 131.30 155.44
Na 175.64  57.31 143.78
Na   5.73  16.82 153.39
Na 163.12 163.61 133.86
Na 107.43  98.68 104.41
Na 124.22  32.12  71.80
Na 112.43 160.44 106.85
Na  77.77 131.92 119.60
Na  51.31 115.51 198.59
Na 147.08  97.88   7.78
Na  29.14  29.67  91.95
Na  45.06  55.09  90.70
Na 125.43  80.19 181.01
Na 124.05 171.70 107.13
Na 140.75  23.07 189.18
Na  24.40  25.75 168.86
Na  31.76 163.96  25.04
Na 172.06 200.74  12.46
Na 162.51  99.72  66.87
Na 149.69  87.68  76.71
Na 168.90 181.80 103.44
Na 153.20  51.06  61.51
Na  25.55 146.38 116.48
Na  58.87   2.61  29.15
Na  26.12  89.16  45.15
Na 191.56 145.01  64.70
Na 182.81  74.01  33.85
Na 195.75   7.71   6.93
Na  80.19 165.88 128.48
Na  69.50 197.14 149.08
Na 174.26 181.22 122.25
Na  28.11  38.75 191.95
Na 154.79 142.34  19.64
Na 192.60  88.48 115.47
Na 104.27 140.04  95.03
Na  94.65 175.56 188.43
Na 169.57 100.34 179.97
Na  39.50  48.89  23.48
Na 178.07 188.64   0.44
Na 189.77 159.44   4.90
Na 164.83 154.65 195.42
Na  33.75  61.43  42.64
Na   1.51 168.30 193.70
Na 150.19 128.07 177.13
Na 106.71 123.59 128.20
Na 198.54   3.94 140.38
Na  48.56 181.04  17.52
Na  37.00  80.36  27.84
Na 201.04 162.95  91.16
Na  88.01  97.74 173.38
Na  40.43 111.63   1.81
Na  37.66 191.31 200.13
Na  76.97 187.79 196.74
Na 113.21 165.49 115.06
Na 186.83 123.46 184.60
Na  63.41 115.25 158.30
Na 125.02   6.75  30.85
Na  58.03 141.52  80.91
Na 176.01  31.74  84.41
Na 108.16 111.90  88.36
Na  59.28  68.01 189.80
Na 144.21  17.32 163.70
Na   2.39  43.58 158.95
Na  47.30  99.97 149.12
Na 126.69  39.23  12.44
Na  81.71 164.50  15.95
Na 200.86 153.45 169.17
Na  39.79 166.29 197.02
Na 123.17  75.58 159.61
Na  50.60 140.39 194.50
Na  22.46 112.24 108.64
Na   7.70 115.73 170.02
Na 185.07  56.89  59.46
Na 202.06   9.97 114.01
Na   6.66   6.28 102.78
Na  60.70  39.81 136.83
Na 140.01 178.91  87.11
Na 120.60  29.50 147.75
Na 155.29 183.44  89.86
Na 113.57  77.47 183.06
Na  88.01  37.83 134.12
Na  63.92  69.47 152.84
Na 193.86 142.25 100.20
Na  55.85   0.48 164.46
Na  41.57  41.95 201.04
Na 186.19 104.79  76.53
Na  92.12  68.47 101.38
Na  29.26  95.13  59.62
Na  74.59  40.82  78.63
Na 166.80 112.71  75.58
Na  16.25  48.07 158.00
Na 127.95 110.67  22.48
Na 134.59  58.02 139.96
Na  19.85 187.41  54.79
Na 179.38  83.74  62.47
Na  80.21 188.58  21.18
Na 182.32  31.07 152.99
Na  14.28  65.94  37.70
Na 116.86 109.71  28.27
Na  76.94  61.76 172.58
Na  55.50  22.77 195.03
Na  21.58   5.91  90.72
Na  85.20 137.90 158.52
Na  27.02 158.07  70.65
Na  59.36 112.14 101.69
Na 106.06  79.09 137.72
Na  19.22 142.94  45.08
Na   4.08 110.55  42.84
Na 160.06  58.23 138.12
Na 186.50  55.62   6.25
Na 193.25  97.41 105.44
Na  18.02 125.68   0.52
Na  12.49  41.74   3.09
Na 123.12 112.99  52.34
Na  31.42  78.40 177.32
Na 139.38 178.30 195.29
Na 117.88 179.60  52.38
Na 156.09  25.13 101.42
Na 171.78 124.11   6.00
Na  41.28  55.21  79.70
Na 196.09 172.03  37.33
Na 166.31 189.45   6.07
Na 110.39 196.57  51.47
Na  32.51  78.60  76.32
Na  89.82 103.37 185.79
Na 133.98 155.16  19.03
Na  97.69 193.15  64.43
Na  62.48  34.30 101.18
Na 149.75  49.53  80.74
Na 160.68  42.11  69.87
Na  30.34   7.12  67.81
Na 119.26 125.73 100.85
Na 158.69 102.74 133.09
Na  92.90  54.81 119.68
Na 118.62 108.07 185.31
Na 182.24 135.10  17.96
Na   0.69  21.17 177.97
Na  38.38  11.23  88.92
Na 111.00  78.46 192.49
Na  40.80 135.89 152.05
Na 192.31 196.92  38.16
Na  96.21 107.33 101.61
Na 144.49 197.45  35.14
Na 189.29  29.04 189.93
Na  44.23 151.71  13.18
Na  56.17 173.31  12.90
Na  61.56  58.50 127.44
Na  55.66   3.08 143.76
Na 188.65 114.50 168.13
Na  56.29   2.28 196.08
Na  94.16 183.05  86.88
Na  63.40 145.91   6.72
Na  38.33 171.93 196.61
Na  59.90 157.68  51.11
Na 141.53 101.47 174.43
Na 151.71   8.16  45.38
Na 136.79  42.31  46.59
Na 117.66 139.13  91.97
Na 116.58  93.23 134.05
Na  24.32  70.02  32.76
Na 153.48 163.45  96.04
Na 190.54  42.62  35.85
Na 173.94 120.10  61.77
Na  45.48 147.81 198.16
Na 144.49 178.56  13.91
Na  60.52 170.09 169.63
Na   3.32  14.27  75.29
Na 139.06 155.11  84.91
Na 110.02  34.94 183.49
Na  71.51  81.62   9.17
Na  43.21  41.35 176.47
Na  90.80 163.09 142.77
Na 143.02 196.60  68.95
Na  99.14  22.66 168.37
Na 197.14 168.58 160.42
Na 171.93 122.87 202.13
Na  37.67  41.64 135.67
Na 125.61 198.92 160.13
Na 196.27 118.40 162.89
Na 148.83  89.22 151.41
Na  77.03  31.41 156.14
Na 171.90 164.30 151.78
Na  17.71  91.10 107.56
Na 172.26  62.06  73.22
Na 151.84 126.11 141.57
Na 172.15  56.18 175.03
Na   0.52 165.61  59.61
Na  42.35  15.50  70.10
Na  46.67 116.49 188.70
Na 202.33  93.55  36.38
Na 119.19 178.51  58.17
Na 134.62 156.29  64.90
Na 157.58 161.63 166.00
Na  10.93  65.59  90.38
Na 114.90 128.92  62.20
Na  53.29  84.50 194.33
Na 136.47  85.35 154.24
Na  41.46  71.88 137.36
Na 164.15  61.08 111.30
Na 187.29 150.31  40.46
Na 132.90  17.33  27.42
Na 104.42  90.00  23.89
Na  66.79  10.64  63.92
Na  58.88  38.69  72.92
Na 155.59 109.15 159.90
Na 166.96  53.84 172.65
Na  27.32  20.32 136.31
Na 104.34 104.17 100.84
Na 193.37 152.23 137.60
Na 189.69  27.38 137.49
Na  80.81 167.70  32.01
Na  38.30 117.07  23.41
Na 174.04 136.96  82.64
Na 145.64 134.26 129.04
Na  83.85  89.81  24.74
Na  27.61  59.40  12.42
Na  20.90 168.51  87.11
Na 127.58  67.16  17.45
Na 155.55   5.94 148.03
Na   4.27 103.40  96.67
Na 142.55  50.54 101.11
Na  13.77 153.43  72.88
Na  80.12 138.90 153.66
Na 199.97  91.46 122.30
Na 173.37 184.84 131.91
Na  98.17 189.70 158.35
