  1000
  Step: 499900
Cl 108.51 107.58  98.55
Cl 101.52 102.35  99.52
Cl  37.81  94.44 106.67
Cl  59.38  95.62  43.91
Cl 108.67 102.02 104.21
Cl  67.83  54.93  75.88
Cl 106.35 101.94 100.86
Cl 181.09 197.09  43.01
Cl 104.65 104.59 103.73
Cl  98.19 110.82 105.72
Cl 101.04 105.31 105.55
Cl 171.85  73.78  23.52
Cl  17.78  70.62 111.71
Cl  54.28 183.45  37.27
Cl 168.38 114.17 157.26
Cl 132.14  67.57 200.82
Cl  50.29 191.00 197.47
Cl 136.64  89.31  41.25
Cl 157.61 181.51 189.91
Cl   3.50   9.64  21.14
Cl  90.57 163.52 171.96
Cl 140.70  30.83  77.73
Cl 194.88   2.84   6.07
Cl 135.16  29.02 172.04
Cl 122.94 180.30  92.62
Cl  21.25  14.42 126.97
Cl 167.98  40.09 194.30
Cl  11.79 139.29 145.55
Cl  78.71  34.84  68.53
Cl 116.76  52.35 108.82
Cl  19.90 122.29   2.01
Cl 119.35   0.02 174.55
Cl 152.17 188.08  39.47
Cl  18.65 190.48  90.26
Cl 172.65  75.40 198.11
Cl 164.78  95.90  58.53
Cl   5.67  66.28 134.55
Cl  18.08  15.87 186.51
Cl 177.75  19.70  30.35
Cl 177.87 144.50 193.34
Cl  27.73 155.47  16.96
Cl 174.02  95.02  69.44
Cl 163.20 115.87  93.20
Cl  19.15  87.95 143.01
Cl 159.31  62.10  69.91
Cl  54.77  65.43  94.67
Cl 105.88  88.07 177.37
Cl  17.63 181.54 151.20
Cl   7.96  96.84  71.03
Cl  12.08 102.62 176.78
Cl  82.18  65.18  65.04
Cl 180.30  34.38  18.64
Cl   8.95  58.22  23.93
Cl 183.19 118.69  29.00
Cl 201.24 132.77  20.85
Cl 161.69  20.58 111.76
Cl  71.10  90.35  78.62
Cl 149.42 151.57 176.26
Cl  58.80 125.70 113.23
Cl 137.86 166.00  77.58
Cl   8.95 103.44  45.82
Cl 181.54 128.24  65.28
Cl 138.34   6.61  76.95
Cl  93.26 129.70  67.51
Cl  12.31  41.62 127.57
Cl  10.75 153.51  54.46
Cl 198.94   6.17 153.37
Cl  15.05  24.70  84.53
Cl 179.88 148.33  72.52
Cl  36.25 150.82  30.03
Cl  18.53 157.78  85.17
Cl  88.59  64.67   2.77
Cl 103.91  14.57 178.05
Cl 169.16  41.34  85.81
Cl  87.93 138.74  39.17
Cl  29.30 167.46 123.33
Cl 191.95  54.06  84.76
Cl  39.15 147.43 178.22
Cl  38.80  70.65  23.69
Cl 108.78  69.89 157.19
Cl 191.82  87.68  39.45
Cl  57.50  82.52  10.90
Cl  25.55   3.77 174.25
Cl 146.93 129.99 170.22
Cl 139.23 192.68  68.08
Cl  50.89  16.72  15.56
Cl 172.32 161.88 168.99
Cl  15.42 114.94  95.83
Cl 158.44  23.31 137.23
Cl  37.71 132.15   9.22
Cl  57.59   8.80  71.15
Cl 164.04 191.03 157.09
Cl 171.98 196.26  70.24
Cl 142.70  43.86 101.16
Cl 182.42 135.72 125.07
Cl  88.65 120.42 151.81
Cl  76.24 182.91 190.09
Cl 110.83 151.59 129.49
Cl  91.77 195.37 137.73
Cl 103.12  77.03 102.84
Cl 157.29 202.40  77.51
Cl 159.70 111.85  86.13
Cl 190.25  49.62 164.87
Cl  16.34 109.14   0.83
Cl 164.69  35.33 164.65
Cl  12.57 134.42  91.88
Cl 151.16 164.07 109.91
Cl  85.00 105.71 186.07
Cl 141.27  19.80  27.73
Cl 128.82 154.68 175.21
Cl 116.08 151.56 182.47
Cl 182.90  79.44 155.79
Cl 133.48  75.37 127.62
Cl 190.91  18.42  45.84
Cl  67.77  10.71  19.71
Cl  21.67 147.54  50.48
Cl  57.38  46.07  97.03
Cl 192.98  50.31  35.75
Cl  83.55 191.30 180.26
Cl   7.14 155.80 157.09
Cl  23.18 177.72 101.20
Cl  66.30   6.61  66.20
Cl  11.59  85.85  81.72
Cl 186.29  33.26  99.96
Cl 163.35  16.67  75.35
Cl 101.78  74.17  66.66
Cl   9.03 102.00   6.54
Cl 111.36  73.56  55.40
Cl  36.38  27.91  88.88
Cl  31.72 112.42 136.01
Cl  85.76  41.30 101.71
Cl  33.29   8.09  99.03
Cl  21.86 122.53  89.98
Cl  13.69 173.31  35.13
Cl 134.74  59.01  42.24
Cl 107.39  22.12 118.67
Cl   8.89 153.56 179.66
Cl  77.68  50.92 115.36
Cl  35.97 118.31 109.81
Cl   5.54  11.80 142.59
Cl  77.24   1.73  90.43
Cl 190.28  90.63  66.21
Cl   1.99 144.71 198.66
Cl  41.55  50.31 157.82
Cl  50.63 181.14 196.48
Cl  32.87  82.04 171.93
Cl  99.24 141.95   8.55
Cl   4.53  13.62  41.92
Cl  36.97  96.80   2.50
Cl 152.32 138.80   4.02
Cl  74.61 144.31  44.88
Cl 114.37  70.10  49.92
Cl  85.52   4.90  54.33
Cl 152.94  10.75 112.67
Cl 143.43 108.57  40.97
Cl  83.72  25.21  39.54
Cl 185.68  88.34  12.02
Cl 140.10 108.25  12.31
Cl  14.43   3.22 119.09
Cl 191.36 140.00  60.74
Cl 140.46 148.64 147.72
Cl  72.67  70.71 187.08
Cl 122.49 149.25 152.12
Cl  32.48 158.18 113.94
Cl 116.93 127.26 172.10
Cl 184.14  49.47  57.12
Cl 184.63  55.18 173.57
Cl 172.08 135.56  36.76
Cl 147.06  63.48 147.44
Cl 135.62 109.60 143.76
Cl 100.62 163.79 131.98
Cl  53.15  29.44  71.97
Cl 169.19 129.59  70.92
Cl 132.03 173.40  45.60
Cl  27.64  68.54  90.95
Cl  97.17  14.07  42.75
Cl  90.65 132.58 149.68
Cl 106.05 110.56 109.17
Cl  70.20 109.12 113.07
Cl  87.76  18.76  51.34
Cl 197.23  83.73  44.89
Cl  62.59 185.28  70.05
Cl  82.58 153.16  20.68
Cl  42.63 198.18 130.51
Cl  49.91 114.80  58.74
Cl   9.55  13.61 195.90
Cl 103.91  55.58  18.77
Cl 198.67 186.88 126.69
Cl  47.32 127.26  34.39
Cl 166.29  89.52 195.04
Cl  46.87 192.60 107.85
Cl  47.39  95.80 146.34
Cl  36.63 194.85  69.37
Cl 115.97  74.62   5.09
Cl  15.86  61.94  71.26
Cl  40.82 187.48  44.60
Cl  35.11 103.74  18.54
Cl 116.24 160.96 153.31
Cl 120.34  97.83  86.08
Cl 193.67 153.90 103.85
Cl 133.63 111.23 155.93
Cl 190.45 140.72 104.55
Cl 184.84  15.00 139.18
Cl   0.70 106.31 181.21
Cl  54.08  42.76 124.76
Cl  10.60  91.99  30.99
Cl  41.39  24.71  56.53
Cl  33.74  44.72 177.68
Cl 187.55 143.02 166.96
Cl  31.37 195.34 117.75
Cl 174.83  73.05 176.31
Cl  15.17  48.76 161.53
Cl 127.41  67.55  50.11
Cl  93.59  56.55 117.75
Cl 113.13 122.52 145.30
Cl  72.89 185.90 200.30
Cl 106.87 138.37  27.53
Cl  80.62 108.53 128.46
Cl 125.56  39.14 181.13
Cl  21.68 151.96  94.97
Cl  22.00  11.73   1.29
Cl 134.55  50.91 134.75
Cl  21.81 127.61  33.03
Cl 196.16  28.31 155.20
Cl 135.33  43.05 112.37
Cl  47.84 177.78 130.20
Cl 167.00  90.54 172.05
Cl  66.83  12.21  50.68
Cl 175.02 132.57 108.35
Cl  50.92 201.85  36.00
Cl  69.25 181.44 165.39
Cl 149.04  61.83  12.73
Cl  46.37  67.25 133.72
Cl 200.65  35.82 132.68
Cl 162.79 141.64 161.95
Cl 127.55  10.04 152.35
Cl 152.01  93.38  70.38
Cl 109.52 132.40  51.77
Cl  84.52 142.16 118.55
Cl 163.01 190.26  16.01
Cl 180.67 124.11 180.76
Cl  61.49 142.25 156.71
Cl 128.61  46.55   4.73
Cl 138.48 171.04  13.71
Cl 194.66 113.08  12.80
Cl  97.24  96.40 159.50
Cl 174.52   8.45   5.99
Cl 111.71 101.75  25.97
Cl 135.26  10.59  52.80
Cl  12.52 200.48  97.97
Cl 108.30  87.79 136.74
Cl 189.30  29.08 200.76
Cl  67.70 139.78  20.90
Cl 168.30 178.73   9.24
Cl 189.30 192.59 137.55
Cl 135.46 126.54 105.94
Cl 166.25 195.22 102.51
Cl 132.96 170.86 137.33
Cl 164.48 137.17  68.21
Cl 101.33  38.26 175.64
Cl 180.78  84.29  96.79
Cl 187.13 177.20 197.33
Cl 198.17  89.04   5.21
Cl 188.65 139.04 151.41
Cl 121.96 160.12  11.12
Cl 108.25 186.70 132.47
Cl  29.51 107.85 196.19
Cl 138.08  45.89 155.82
Cl 181.39 113.35 171.59
Cl  29.37  28.34  28.43
Cl  59.78  17.27 141.96
Cl  54.62 103.94 155.41
Cl  57.68 167.26  43.44
Cl 200.05 168.34  73.89
Cl  22.68  89.61 131.38
Cl 101.31 116.69  86.62
Cl 104.36 100.16  97.52
Cl 198.46  36.28 156.39
Cl 103.93 104.79  97.67
Cl   7.74 177.87 197.53
Cl  68.79 101.99 154.48
Cl  57.38 130.01 129.05
Cl 175.10 114.97 158.86
Cl 186.95  54.47 179.89
Cl 184.44  21.65 176.88
Cl  77.03  90.26 166.64
Cl  85.94  22.54  58.04
Cl  98.02 129.64 191.16
Cl 103.47 178.94 120.63
Cl  92.63  63.58 161.67
Cl 158.78  55.19  16.80
Cl  42.56  45.78  49.90
Cl  84.65  84.91 137.23
Cl 114.60 145.21  12.91
Cl  53.25  22.16  94.44
Cl   5.74  51.45  67.75
Cl  20.68 137.10 108.74
Cl 156.54 197.45 103.51
Cl  31.60 142.30 100.48
Cl 151.04 181.31 191.43
Cl 170.80  34.28  16.78
Cl 175.29 156.63 193.96
Cl  19.11  59.63  54.99
Cl 119.06 188.72  93.93
Cl 171.08 143.20  15.53
Cl 189.96  68.93  21.51
Cl  45.53 131.00  62.98
Cl 158.39  79.30 192.33
Cl 151.89 177.05  70.68
Cl 105.65 107.62  95.25
Cl 110.28  25.40 109.84
Cl 182.39 144.37  87.38
Cl 189.70 184.69 105.03
Cl 190.88  89.11  83.68
Cl 101.17  35.48 119.35
Cl  36.82  13.83  81.88
Cl 101.15 110.57  98.30
Cl  76.68 129.50 147.36
Cl  71.49  59.52 110.68
Cl 115.26   2.17 114.53
Cl 158.00 181.64  81.38
Cl 131.40   1.62  57.72
Cl 195.05 128.42 147.89
Cl 127.60 114.22 154.59
Cl  47.60 124.10  82.73
Cl   2.13  49.61  53.41
Cl  44.71 163.66 111.94
Cl   9.02 128.49 129.81
Cl 190.94 100.24 159.39
Cl 167.48  48.27 135.57
Cl 133.54  41.92 124.28
Cl 138.64 161.10 166.70
Cl 183.32  23.51 118.35
Cl  76.57  35.79  75.07
Cl 145.55  77.84  40.09
Cl 195.88  40.93 197.55
Cl  98.66 107.57  95.33
Cl 169.33  15.20  67.80
Cl  99.32  53.05 191.25
Cl  87.09  62.08  47.35
Cl 116.59  32.65  46.09
Cl  57.84  35.50 185.64
Cl 124.50  15.97  14.46
Cl 101.07 109.31 107.49
Cl 128.74 142.86 104.71
Cl 175.92 101.89  19.77
Cl 167.96  14.40 196.63
Cl 159.54 150.81  72.12
Cl  76.45   6.82  77.66
Cl  60.77  42.82  33.23
Cl 117.99 163.14 100.14
Cl  45.51  55.61  49.07
Cl  81.66  65.86  13.69
Cl  15.44  18.55  27.02
Cl  22.75  24.63  30.42
Cl 178.31  70.12 185.50
Cl  43.93 190.59   8.47
Cl  93.21 113.52 196.84
Cl 182.62  53.83 129.34
Cl  54.73 113.11 157.10
Cl   2.61  95.56 140.18
Cl 114.38  70.69 167.99
Cl 159.82  55.27  84.80
Cl 116.92  22.16 119.94
Cl  47.84 108.05 128.58
Cl 157.00 200.38  98.74
Cl 114.44 199.81  13.16
Cl 101.98 199.41  46.16
Cl  61.97  13.14 106.81
Cl  54.67  14.54 118.46
Cl 169.38 123.26  52.91
Cl  69.18 145.19  46.09
Cl 189.68 162.73  24.73
Cl 198.87  24.46 137.70
Cl 143.62 150.40 127.15
Cl 190.16  38.57  66.83
Cl 153.48 170.32 180.67
Cl  18.34 182.88  61.71
Cl 116.00  89.27 109.47
Cl 175.17 104.24 182.26
Cl  14.50  19.69  71.77
Cl  42.61  51.23  59.80
Cl  15.56 118.80 162.07
Cl  83.14  53.20  71.41
Cl  92.56  32.20 178.03
Cl  24.32 110.46 200.40
Cl  36.23 156.87 198.11
Cl  12.18  87.05 165.54
Cl  26.63  16.38 172.36
Cl  35.27 131.69  66.35
Cl  52.54 158.05 167.18
Cl 171.83 118.05  26.56
Cl 196.52 122.92 120.27
Cl  83.80  70.61 161.40
Cl  97.69 128.60 154.44
Cl 147.35 201.99   9.92
Cl  91.89 158.49 198.73
Cl 137.66 104.30 114.74
Cl  18.54  15.32  72.33
Cl  24.72 172.90 146.56
Cl  33.43  93.71  61.58
Cl 167.41 122.91 182.02
Cl  16.64   0.30  35.41
Cl 135.48 124.98 111.99
Cl  73.77 131.14 133.33
Cl 200.50 199.71  20.82
Cl 110.46  32.98 154.43
Cl  28.08   5.01  47.42
Cl 102.62 154.45  84.24
Cl 184.64  67.44  72.22
Cl 165.56  28.12 110.27
Cl  74.21  81.88 184.96
Cl 149.22 126.44  29.93
Cl  61.30  76.98  58.36
Cl  53.13  11.55 155.17
Cl 180.32  30.30 158.58
Cl  54.70 148.12  80.78
Cl 194.68  52.98 200.95
Cl  83.39  89.65  81.70
Cl  23.63 115.26  67.44
Cl  57.27   2.72 164.22
Cl 158.77 130.96 102.18
Cl  93.48 182.40 140.98
Cl  58.24  61.06   2.45
Cl 197.03 188.42 119.60
Cl 139.78  20.43  84.99
Cl 131.17  43.44  15.92
Cl 101.28 177.65 192.51
Cl  87.69  79.77 131.37
Cl  69.93 142.97  93.55
Cl 130.63 161.57  35.91
Cl  66.19  38.37  48.57
Cl 149.08  72.01 182.85
Cl 171.79 168.63 130.36
Cl 108.22 141.74  91.56
Cl  99.81 106.31  98.51
Cl 152.55  36.44 135.94
Cl   0.20 181.87  33.37
Cl 167.89  51.12  69.22
Cl  81.84  48.52 176.48
Cl  71.27  66.15  96.41
Cl  22.71  67.50 123.25
Cl 106.25 198.97 109.48
Cl 200.25 132.45 160.60
Cl  94.72  95.78 146.16
Cl  37.40 194.45  13.60
Cl 172.21 139.22  44.10
Cl  25.29 144.60 158.95
Cl   6.65 150.20 101.19
Cl 170.64 199.75 104.74
Cl 104.00  45.42  45.30
Cl  51.22 194.56 151.95
Cl  33.51 143.06  60.96
Cl 125.63   2.60 161.72
Cl 192.15 117.62  36.18
Cl 149.61  49.86  73.17
Cl  48.89  92.75  45.50
Cl  90.30  26.34  25.74
Cl 124.26 138.63  78.17
Cl 193.95  85.28 114.92
Cl 177.77  67.85 136.56
Cl 166.01 127.34  40.12
Cl  62.45  35.38 161.98
Cl  71.94 154.52 124.32
Cl 195.28 101.08 198.56
Cl 159.39  91.25  30.78
Cl  65.00 117.96 167.06
Cl 134.93  24.80  98.72
Cl  38.03 163.40  64.53
Cl 129.95  36.31  54.95
Cl  20.69 201.01  77.00
Cl   6.39 172.09 130.85
Cl  66.89 108.17  68.08
Cl 110.16  60.01 178.10
Cl  35.61 174.32 142.93
Cl  84.09 164.34  94.70
Cl  65.81 143.54  74.91
Cl  71.07 102.27 138.09
Cl  28.12  96.15 133.61
Cl  75.71  83.14  66.88
Cl 187.76 154.80  40.27
Cl 178.69  71.12  88.34
Cl  63.37  72.88  89.83
Cl 141.66 168.28  59.71
Cl 151.21 133.45 161.33
Cl  21.95 173.10 177.06
Cl 108.38  11.63  37.49
Cl  34.18 146.61  97.85
Cl  16.29  78.00 107.84
Cl 187.10  87.80 150.40
Cl  98.36  69.48   3.94
Cl  48.19  23.61 106.49
Cl  40.99 132.29  62.80
Cl 151.20   5.48 163.08
Cl 186.19  55.77 161.08
Cl  98.18 107.77 111.29
Cl  99.87 160.91 139.44
Cl 126.58 185.45 131.19
Cl 162.69  88.85  73.06
Na  97.15  63.88 142.94
Na 153.58 174.68  89.93
Na  49.81  39.17  68.20
Na  76.80  72.49 178.21
Na 133.72  94.49  88.94
Na  58.18 141.27 146.80
Na 102.59 106.60 107.22
Na 105.92 106.57  97.77
Na 134.35 157.82  66.11
Na  63.92  87.92  84.06
Na 170.05  34.53  99.89
Na  35.64  72.55 101.73
Na 143.47 200.64  61.42
Na 101.34 104.30  97.51
Na  43.32  48.20 166.26
Na 104.22 102.43  99.08
Na  71.29  23.22  50.79
Na  31.41 120.34 193.95
Na  12.00  81.86  34.19
Na  87.99  28.67  45.35
Na 184.51 115.47 147.07
Na 171.97 154.33 151.76
Na  90.52 152.19 159.91
Na 154.01  55.64 193.52
Na 178.19 129.55  96.18
Na  37.37  74.60 191.42
Na 187.30  63.26 181.34
Na  81.91  82.04  56.95
Na  24.48  19.27  27.45
Na 100.39  42.79 185.31
Na  88.71  17.32 152.96
Na  25.83  58.11 192.10
Na 111.78 108.02  65.59
Na 188.28  88.52  33.15
Na  52.67 119.08  40.10
Na  63.26 110.91  45.29
Na 190.64 134.09 128.07
Na 184.57 122.56 155.34
Na  22.62 144.41 126.05
Na  31.91 147.76  99.06
Na  77.12  90.93 201.35
Na  50.03  69.89 194.41
Na  67.89 198.74  69.07
Na 101.16  43.78  11.50
Na 163.11  23.54 170.19
Na  82.55  83.39  70.02
Na  96.40  41.24 169.80
Na  59.70 100.00   7.63
Na 184.87  74.75 163.43
Na 114.09  61.88  46.03
Na  91.93  79.54 186.76
Na 114.25  50.83  55.23
Na  97.64 105.50  97.23
Na   3.43  87.88  58.80
Na  35.44  80.86 120.75
Na  10.53 133.41  96.06
Na 110.60 103.15 102.71
Na  15.47 159.51  82.64
Na 102.06 114.35  81.96
Na  28.59 120.94 114.51
Na 186.74  20.40   6.45
Na  37.44   2.33  61.26
Na 107.83  25.97 111.13
Na 180.25  47.75 169.65
Na  27.38   0.29  86.75
Na   3.09 178.21  30.52
Na 176.50  72.59  88.18
Na 190.07  96.14  60.58
Na 183.02  71.10 135.99
Na  11.74 130.13 149.98
Na  74.46 139.06 113.33
Na 186.28  50.96  57.02
Na 153.01  77.03 197.07
Na 137.26 113.79  55.28
Na  28.83 106.21  88.19
Na 166.79  75.08  99.36
Na 179.57 141.53  28.67
Na  42.11  92.01  56.21
Na  98.35 127.05  49.07
Na  50.40 151.43   9.65
Na 108.56 115.67 142.43
Na  38.22 171.96 130.20
Na 135.31  74.55  38.20
Na  20.43 110.91 194.64
Na 100.64 108.29  97.10
Na  50.58 107.19 129.38
Na 110.63 199.00 166.71
Na  53.56 126.24 159.29
Na  19.92 143.75 157.41
Na  90.53 102.05  76.08
Na 177.39 187.73  79.66
Na  13.72   6.60 197.78
Na  20.26 189.88  46.18
Na   5.89 102.66   3.56
Na 134.49 102.32  24.43
Na 171.75 147.67 169.37
Na 190.04  50.50 187.30
Na 136.52  23.40 130.61
Na 113.18  19.23 119.39
Na 110.66   2.80 158.72
Na  88.81 111.48 157.50
Na  21.99 113.60 179.62
Na 116.12 200.12 119.21
Na 173.77 122.50  56.29
Na  70.26  98.85 186.78
Na  55.90 144.44 169.93
Na 144.79  68.54  92.32
Na 117.72   0.24   0.68
Na  60.56 171.36 188.56
Na  39.95  32.09 165.48
Na 183.16  30.30 158.87
Na  48.64 199.46  78.02
Na 190.96  38.36 133.29
Na 185.39  23.44 121.88
Na   4.16  17.34 139.38
Na   7.07 117.42  98.42
Na  80.36  62.08 190.44
Na  10.20 113.14  84.74
Na  21.78 144.45 103.07
Na  81.02  18.13 101.27
Na  67.67  31.72  21.79
Na 140.46 163.49  83.98
Na 124.66  18.32 179.56
Na 170.34 178.97   7.56
Na  94.78  77.16  83.88
Na  88.17  51.36 110.64
Na  32.41 104.86 177.25
Na  63.31 172.15  27.91
Na 198.48  29.29 156.46
Na 178.07  82.60 129.65
Na  96.87 135.30 200.86
Na  26.17  52.16 198.81
Na 149.93 131.26 162.12
Na 180.60  62.63  51.58
Na 140.22 163.57  75.28
Na 122.31 166.12  97.97
Na 102.94  63.95 152.85
Na 162.71  65.36   4.35
Na 196.61  27.73  63.77
Na 145.72  31.12 101.81
Na 190.29   0.63  23.98
Na 202.30  27.11  80.67
Na  85.04  41.46 180.46
Na  53.24 168.41  74.12
Na  10.89 183.60  78.95
Na  66.60  26.58  28.60
Na  49.20 124.38   5.54
Na  95.83 164.62 133.49
Na  44.80 148.07 180.35
Na 116.62 157.14 139.14
Na  64.03  11.12 152.90
Na 133.33  31.84  90.97
Na 183.67  27.75  50.84
Na  52.89 138.44  85.74
Na 144.81 165.82 202.22
Na 164.94  16.76  83.38
Na 180.84  44.43  34.07
Na 179.58  70.87 181.28
Na  21.66 120.42 193.15
Na 148.24  39.11  87.17
Na 122.90 169.43  31.18
Na  78.44 173.42  18.20
Na  81.14  67.85  86.44
Na  47.52  14.72 101.69
Na 143.37 152.40 183.90
Na 176.39 176.56 150.52
Na  55.72  17.86  54.81
Na 201.02 116.80 174.25
Na  81.30  21.43  59.86
Na  54.09 101.82 145.75
Na  66.85  88.84 195.90
Na  15.41  51.29 104.24
Na   9.10 135.88 157.48
Na 171.22 197.78 138.18
Na  74.94  49.67 111.68
Na 197.43 192.87 133.74
Na 116.65 163.14 168.15
Na 100.73 173.16 190.37
Na 166.45 140.34  39.57
Na  28.48  96.12  49.10
Na   1.15 151.61  53.30
Na  34.60 173.04 140.61
Na  91.73 142.66   6.08
Na  40.16 162.56 110.03
Na   7.67  52.82  64.42
Na  16.06  75.47  96.29
Na  60.38 106.24 156.04
Na 161.18 131.57  92.64
Na  11.63 134.87 131.55
Na  49.99  31.83 143.60
Na  71.36 154.87 126.94
Na 198.47 159.73  10.88
Na   4.13 191.01  72.47
Na 111.89 146.85  91.99
Na  30.32  25.21   4.30
Na   2.35  89.63  84.45
Na 169.41 199.94 119.00
Na 123.96  66.88 173.06
Na  95.91  44.83  28.93
Na 158.09 123.78 151.21
Na 186.38  25.69 118.77
Na  94.78 165.84 115.69
Na  64.52  61.51  46.72
Na  17.43 185.80 127.45
Na  31.36   8.50 125.06
Na 130.54 194.36  44.72
Na 152.82  40.61 127.05
Na 104.25  80.50  97.99
Na 157.94  28.59 105.50
Na  11.50   4.08  25.23
Na  21.68  72.60 182.80
Na 112.77 163.30 194.93
Na  90.77 175.94 146.22
Na 129.06 162.09 174.04
Na 200.41  45.51 131.78
Na 166.46  15.26  66.60
Na 115.66  50.00 109.18
Na 130.02 146.45  44.59
Na 154.15  14.35 171.66
Na  92.55  41.80 196.21
Na 179.18 194.80 202.47
Na   3.93  51.08  51.86
Na  67.65 200.94  63.31
Na 199.87  90.61 188.62
Na 139.75 111.42 106.86
Na 108.19  50.90 167.19
Na   8.59 150.87  73.16
Na 128.82  26.46  12.19
Na 158.31  35.81  45.27
Na  70.80  38.89 129.61
Na 117.77   6.15  47.80
Na  33.74 140.25  62.08
Na  75.82 192.52 178.62
Na 180.34 184.41  99.53
Na 108.41 111.71 109.15
Na 155.66 168.77 179.69
Na 113.89  18.07 198.74
Na   7.24 124.60  51.80
Na  11.75 102.82 161.35
Na 177.10  67.82   3.36
Na 123.79 124.86  16.00
Na  65.15  87.45  58.16
Na 138.74 191.58  93.88
Na  61.80 115.11 124.44
Na 160.97  54.96  31.65
Na  30.99 144.11  16.00
Na 130.41 199.49 153.51
Na  41.98 191.27  29.80
Na  99.56 166.00  15.36
Na 182.52  81.05  42.48
Na  78.78   2.29  94.74
Na  72.72  48.39 126.09
Na 137.18 178.25 176.51
Na  42.42  39.65 115.17
Na 185.92 101.60 194.80
Na   3.54 117.86 151.27
Na 115.11  10.86  32.36
Na 173.81 116.98  25.28
Na 160.30 193.36  33.00
Na  45.78  50.83  63.32
Na 161.49 120.94  76.97
Na 156.28  21.93 137.80
Na 105.03  45.66  49.54
Na 197.18   0.22 131.83
Na 112.23  24.31  55.18
Na  51.88  41.04  34.31
Na 112.80 156.38  50.28
Na   9.80  74.79 119.21
Na  71.49 133.88 158.73
Na  36.63  22.20 196.96
Na 189.07 189.24  46.23
Na  19.49 199.00 199.58
Na 157.68 102.67 172.01
Na  55.05  31.03 105.07
Na  68.38 187.28 177.70
Na  13.93 175.18  13.42
Na 141.89 185.72 119.11
Na 144.06 136.65  89.88
Na 184.42  80.81 153.88
Na 106.95 103.61 103.07
Na 145.33  43.73 174.79
Na 181.46 155.50  93.12
Na  86.97 139.70 199.08
Na 141.10  19.82 186.40
Na 143.46 173.90 144.02
Na   9.51  15.58  89.92
Na 178.08   9.41  57.49
Na 202.45 129.78 165.94
Na 101.42  69.18 183.10
Na 135.01 159.50  35.71
Na 160.94 186.27 160.32
Na 142.81  56.56 183.68
Na 194.47  51.55 149.32
Na 133.14  99.46 138.13
Na  25.58  34.02 177.27
Na   2.61 169.14 142.68
Na   9.64 151.27  63.06
Na 107.29 183.49  55.87
Na  35.00 194.18 112.98
Na  28.27  73.19  30.82
Na  84.05 102.79  65.42
Na  15.30  55.65 100.26
Na  50.34 188.92  26.88
Na 100.55 109.76 104.87
Na 154.98 152.59 155.66
Na 129.86 147.55 193.59
Na 133.86 163.93 188.65
Na  46.86  11.37  55.82
Na 139.23  91.72  24.47
Na  26.20 190.02   3.62
Na  87.34  53.65  81.80
Na  81.65  25.11  65.45
Na  87.25 175.36  11.49
Na 199.69  17.96 154.88
Na 159.44  42.44 168.28
Na 149.21 115.82 107.23
Na 121.20  56.19   5.24
Na 122.56  47.09 116.32
Na 104.75 108.31  92.79
Na 123.92  18.48 158.82
Na  83.42  19.28  46.63
Na  49.96 110.66  51.12
Na 145.30  49.22   7.66
Na 167.31  83.49  71.73
Na  22.39  16.59 103.17
Na 157.76  24.60 134.69
Na  84.41   2.95 200.43
Na  85.56 180.65 196.11
Na 117.38  58.37  36.88
Na 110.97  60.39 180.94
Na 195.74  27.04  27.72
Na 149.50 132.52 178.50
Na  59.42 146.45  78.08
Na  35.93 135.01  63.79
Na 142.26   6.73  42.08
Na  84.10 168.09 175.31
Na  76.20 168.62  55.79
Na 185.10  15.96 190.43
Na  26.61 156.06 114.31
Na  55.48 134.11 185.16
Na  83.21 192.22  76.69
Na 110.36 187.00  92.76
Na 200.98 133.90  72.10
Na 137.19  34.21 108.95
Na 183.30  45.91 188.19
Na  67.26 133.42  35.07
Na 133.25  15.91  37.09
Na 103.28  92.26 124.86
Na  76.08 119.36 142.75
Na  86.04 129.52 161.52
Na 162.16  19.29  75.54
Na 151.05 149.04 138.45
Na  45.94 186.59   0.89
Na  88.96 111.59 184.13
Na 154.87  95.99 147.31
Na 142.83  64.96 150.03
Na 160.28  11.06 110.19
Na  17.74  22.79  39.41
Na  96.48 110.04 107.54
Na  39.33 169.03 151.71
Na 122.03  10.49  90.73
Na  79.10  86.52 130.98
Na 175.90 103.93  23.16
Na  73.84  47.89  80.88
Na  73.20  67.21 199.16
Na 115.38 131.92 186.36
Na 104.90 192.61 137.00
Na 113.51 145.51  10.57
Na  82.70 157.66  19.82
Na 183.46  54.58 119.97
Na  80.03  90.62 123.92
Na 198.02  67.60  15.71
Na 129.78   6.10  55.80
Na 109.06 119.80  36.75
Na  72.50  57.67 170.03
Na 102.33  14.38  42.37
Na   6.09 102.88 139.51
Na 169.23  86.07 192.72
Na  98.75 104.37 106.51
Na  20.63 113.06  52.30
Na  21.00  85.73 125.09
Na  30.22  41.89 123.22
Na  13.70  22.81 135.68
Na 161.66  55.48 139.03
Na  69.15 170.69 184.90
Na  58.92  59.08 147.58
Na  39.86  70.54 157.99
Na 168.93  96.14  67.79
Na  19.30  56.77  55.51
Na 107.20 139.21 160.16
Na  20.65 101.83 139.92
Na 155.31 152.83 166.80
Na  65.15 112.94  86.06
Na 147.10 123.48   8.54
Na 162.57 165.83  24.85
Na 177.56  44.04 176.70
Na  12.19  54.62 100.30
Na 196.26 118.35   9.10
Na 201.07  79.08  66.70
Na  72.96  23.53  73.45
Na 177.76  31.06 137.66
Na  42.55 193.67   5.27
Na  44.28 141.26  26.56
Na  58.72  56.06  96.71
Na 150.58  91.28  63.90
Na  61.04  71.60  89.37
Na  71.85  91.50  93.77
Na 176.96  19.28  95.71
Na 103.50 110.23 108.35
Na  25.40  67.48 138.58
Na  82.68 200.43  51.14
Na 103.15  87.29  36.87
Na  13.61  46.05  22.91
Na 116.39 174.39  56.60
Na  24.49 123.94 140.99
Na 180.23 148.43 199.50
Na 188.07  38.66  94.79
Na  18.57 154.58 171.83
Na  95.81  42.81 100.06
Na  31.26 153.08  12.02
Na   0.29   6.07 188.77
Na  40.99 117.07 118.10
Na  50.66 201.96 142.89
Na 175.03 148.08  75.40
Na 180.23  19.18 150.11
Na  27.97   2.10 167.57
Na 168.67  63.26  68.74
Na 201.91 115.81  26.32
Na  13.59  33.07 116.43
Na  62.35 170.31 103.57
Na 134.22 187.57 176.39
Na   4.62 170.12   2.77
Na 118.07  51.85 178.62
Na 175.35 132.19 161.41
Na 112.67   5.54 136.61
Na  77.51 113.30 166.60
Na   5.88  46.63 153.96
Na 181.40 152.28 108.06
Na  88.74  95.53 113.38
Na  88.51  20.81 173.89
Na  62.09 201.25 167.45
Na   0.49 132.32 198.83
Na  23.50  12.63  67.23
Na 179.22 184.65  33.57
Na  34.90   2.28 139.69
Na  35.85  65.01 115.94
Na  93.00 129.11  84.34
Na  94.33  67.07  60.69
Na 141.54 147.84 155.08
Na 168.77 112.91  91.36
Na 176.54 125.79 201.58
Na 104.79  21.70 118.21
Na 193.49 152.13 105.93
Na 185.20  34.22  10.96
Na  21.00  98.27   9.98
Na 200.08   4.43  47.42
Na 175.14 157.99  45.12
Na  26.08  72.61 127.13
Na 116.39  35.17 183.69
Na  45.37  21.91  45.88
Na 128.88  74.76 128.63
Na 159.00 178.43 104.15
Na 175.03  88.51 103.55
Na  15.94  98.70  32.74
Na 197.24 101.46  32.41
Na 160.96  13.23  26.22
Na 114.96 189.17  14.49
Na  24.87 184.87  62.14
Na 157.22 191.59  62.94
Na 121.73  33.92 162.61
Na  52.72  12.54  91.64
Na 184.91 135.59  32.98
Na 175.38  22.35 173.66
Na  98.13 109.04 113.47
Na  48.74 129.22 122.04
Na  51.21  41.37 176.88
Na  99.78 111.66 107.73
Na  20.08 119.17  24.76
Na  19.86 111.17  72.74
Na 163.20 105.62 168.78
Na 158.84  68.22 166.86
Na 200.80  44.98  18.79
Na  89.15  37.15  38.49
Na   0.06  34.38 157.74
Na 150.42  92.66  40.77
Na 102.03 105.09 102.89
Na 131.99  46.56   7.20
Na  77.54  56.82 101.73
Na 139.55 130.11 146.60
Na  74.28 200.16 166.14
Na  87.25  15.97 169.33
Na 179.66 142.21 164.09
Na 159.26  56.47  71.96
Na 124.86  51.64 154.88
Na  62.05  34.84 153.98
Na 127.97 193.66 177.13
Na 200.03 138.22 150.88
Na  80.82 132.91 153.23
Na 196.68  59.26  81.80
Na  18.48  53.64 151.60
Na 144.87   1.32  13.85
