  1000
  Step: 499900
Cl 101.12 102.58  91.20
Cl 116.69  65.10 121.47
Cl   6.79 187.94 103.57
Cl  91.26 101.45  97.21
Cl  99.50 101.16  96.50
Cl  95.53  93.68 102.08
Cl  96.11 102.24  99.27
Cl  96.69  98.90 102.12
Cl 160.27  12.16 159.45
Cl 106.41 184.51 111.06
Cl 100.03 102.35 101.04
Cl 141.27 122.72 202.02
Cl  87.93  56.51 147.91
Cl 142.43  76.66  60.62
Cl  53.29  40.12 124.11
Cl  68.80 124.23 167.06
Cl  49.16 168.60 117.37
Cl 191.74  75.08 135.59
Cl  51.84  34.09 123.45
Cl  95.45 150.99  48.34
Cl 201.70 130.61 181.78
Cl 160.23 115.35 188.79
Cl 110.07 177.25 149.76
Cl  42.36 102.51  27.33
Cl  31.56  14.35 120.51
Cl   0.04 105.91  13.88
Cl   5.35  58.32  25.58
Cl 158.42  96.11 123.40
Cl  51.63  29.76  36.49
Cl 128.31 106.55 148.32
Cl 150.64  29.29 170.96
Cl 140.29  73.06 130.20
Cl 161.73 187.43 147.49
Cl 159.85 153.93  97.12
Cl 104.26  12.56  69.14
Cl 135.69  42.73 172.91
Cl   8.31  96.44 178.01
Cl 201.10  68.71 146.17
Cl  58.28  19.39 163.99
Cl 137.42  80.96 131.87
Cl  50.09  72.08 172.01
Cl  85.22 104.20  96.33
Cl  18.09  22.92  17.11
Cl  49.43 162.95   4.45
Cl 117.75  16.83 176.98
Cl 106.21  52.49  70.73
Cl  10.16 196.37 187.22
Cl  18.77 178.51 153.05
Cl 198.40  79.11 170.26
Cl  67.88 130.46  10.93
Cl 125.00  28.08  47.38
Cl  78.63  97.36 188.94
Cl 138.84 160.83 111.85
Cl 200.65 139.77  84.64
Cl 100.04  26.62  26.04
Cl 120.83 112.56  33.89
Cl 153.21  15.73  79.50
Cl 126.66 129.28  86.43
Cl  24.74 178.46 152.22
Cl 156.60  33.04 163.38
Cl 184.20 166.55  44.80
Cl 104.42  99.79  89.18
Cl  49.04  71.58  89.90
Cl  95.60 108.21  13.95
Cl   5.78 116.63 145.82
Cl  88.07  94.41 136.93
Cl 101.96 161.94  89.49
Cl 166.67   2.70 196.51
Cl 110.10 126.17 174.30
Cl  70.53 111.26  78.87
Cl 114.05  76.30 119.80
Cl  89.41  65.33   2.53
Cl 193.94  14.22  50.79
Cl 161.95  30.65  90.63
Cl   5.74   2.85  70.08
Cl 160.30 124.95  20.51
Cl   9.79  45.10  20.82
Cl 195.40  98.43   1.58
Cl 152.79  83.01  32.53
Cl  71.59  62.36   6.71
Cl  99.94  42.62 105.68
Cl  49.25 105.99  60.03
Cl  22.68  48.04 110.60
Cl 157.59  65.48 127.72
Cl 143.81 192.81  72.34
Cl  89.34 105.80  95.55
Cl  45.15  14.44  20.64
Cl 160.04 182.86  52.76
Cl  78.54  15.75  63.68
Cl  56.01  21.82  99.08
Cl  70.09  92.77 162.76
Cl 110.19  51.35 128.44
Cl  88.07  78.32 194.51
Cl  89.01 170.95  58.95
Cl  50.85  18.36  18.90
Cl 111.23 200.87 106.80
Cl  55.24 171.07  79.99
Cl 100.14 149.31 118.24
Cl  98.69 196.40 132.63
Cl 153.03 182.40 113.16
Cl  18.40 134.68 186.94
Cl  33.66  35.11  11.84
Cl 166.94 123.77 120.56
Cl 184.97 140.82  56.03
Cl  44.09  81.56 189.91
Cl 162.66  60.86  75.93
Cl 136.21 134.19 102.16
Cl  55.11 119.89  69.71
Cl 124.95 121.31  56.32
Cl 121.23 151.31 141.53
Cl 179.45  12.84 127.19
Cl 184.85  50.62 147.22
Cl 180.61 125.00  31.69
Cl 148.04  78.06  97.65
Cl 100.53  42.41   0.30
Cl  93.98  38.47 117.71
Cl 182.72 134.54  69.95
Cl  93.44  92.20 174.18
Cl  40.23 169.68  35.72
Cl 109.87 121.01 141.52
Cl  71.51 140.78 132.19
Cl   5.38  65.18 114.17
Cl  23.87  68.28  28.40
Cl  54.90  47.11  50.66
Cl  97.87  20.21 138.55
Cl 102.48 100.06  93.84
Cl  42.83 164.50 117.20
Cl 165.20  43.16  72.61
Cl 118.91  43.89  85.08
Cl 124.79 154.90 136.37
Cl 196.41 168.77 108.70
Cl 128.59  43.72 169.25
Cl 198.68 148.00  84.06
Cl  39.70   0.06  88.47
Cl  21.11  82.14  96.93
Cl  18.17  20.11 201.52
Cl 148.93 100.83 179.47
Cl  28.00 125.90   2.52
Cl   0.13  37.10  33.18
Cl   3.35  20.84 141.44
Cl  90.98  25.35 189.45
Cl   4.97 139.77  13.81
Cl 101.99  51.90 112.34
Cl  87.52  44.63  28.82
Cl 170.04 134.15 118.16
Cl  38.21  83.76  95.00
Cl 140.88  82.17 161.77
Cl  24.60  74.59 148.53
Cl 105.35 152.75 171.78
Cl 148.72 198.80 153.06
Cl   4.05  92.78  72.31
Cl 112.43  60.07  48.03
Cl  23.62   6.90 176.47
Cl 124.81  27.00 157.36
Cl 129.96 182.87 175.56
Cl 175.58 124.87 118.90
Cl  98.05  90.56 101.36
Cl 182.54  28.96  65.99
Cl 188.37 187.41   3.78
Cl 182.68 197.86 134.64
Cl  69.26  76.58 105.23
Cl 138.69  29.53  34.23
Cl  99.70  36.40  76.81
Cl 174.29 148.64 193.55
Cl 198.48 156.25  56.20
Cl 138.07 173.61  38.88
Cl  91.36  94.74 101.03
Cl  39.39  13.24 159.45
Cl  62.51  60.79 188.12
Cl 102.39  11.84   1.68
Cl 115.55  30.43 104.52
Cl   9.43 125.47 127.33
Cl  53.49 178.41 161.21
Cl  44.33 145.10  47.42
Cl 186.65 187.45 197.98
Cl 189.75 154.12 192.08
Cl 185.47  24.76 126.21
Cl 190.56  97.29  13.02
Cl  65.42 177.99 112.95
Cl 157.98 201.65 137.01
Cl  49.22  35.11  38.78
Cl  66.47 183.20  66.83
Cl 148.12  84.83 195.95
Cl 146.55 163.58  95.32
Cl 188.44  75.46  27.85
Cl  79.95  78.54 178.76
Cl  85.25 138.25  94.59
Cl  21.91  55.71  39.72
Cl  85.34 150.97 140.81
Cl 174.60 112.26  84.03
Cl 100.62  66.52 101.55
Cl 172.59  81.08 164.92
Cl  61.87   6.29 192.60
Cl 174.68  50.61 172.90
Cl  19.52  35.64 182.04
Cl  33.98 172.85  51.52
Cl  36.22  36.19 119.62
Cl  40.59 130.27  48.65
Cl  13.55  60.69  84.88
Cl  62.65 186.10 109.65
Cl 196.84 135.93 185.52
Cl 181.68 176.11 153.75
Cl 163.78 108.76 165.73
Cl 114.91  75.45  52.18
Cl  33.86  59.05 115.34
Cl 108.05  14.70 113.66
Cl  72.29  12.57 188.11
Cl 179.41  28.19   5.07
Cl  28.38 123.84  17.15
Cl  57.96  36.44 189.81
Cl 159.78 141.92  91.35
Cl  44.22 143.20 147.62
Cl 130.18  64.60 183.04
Cl  33.57 184.63 184.39
Cl 193.96 115.22  62.02
Cl  19.04  36.92  54.62
Cl  40.90  86.69  85.41
Cl 132.75  41.80   3.97
Cl 171.14 155.39  60.76
Cl 191.63 196.54 173.09
Cl 101.59  91.70  75.16
Cl  39.31  81.22  47.20
Cl 163.06 189.10  22.16
Cl 120.52 192.58 176.35
Cl  26.58 148.82  89.58
Cl  93.51  97.41 104.79
Cl 141.68 153.49 170.48
Cl 116.21  55.92 103.37
Cl 115.39   3.42   6.65
Cl  67.46 135.05  87.57
Cl  93.77  56.01 180.95
Cl  50.30 168.55 191.34
Cl  92.63 171.38 201.03
Cl 194.52  33.56 137.19
Cl 100.71 145.40  52.30
Cl   2.50 163.62  20.99
Cl 131.29   9.12  95.60
Cl  47.03  14.85  49.99
Cl  49.93  37.57 163.04
Cl  38.71 111.26  26.88
Cl  95.22 145.47  35.36
Cl  42.19  43.98 130.57
Cl  90.78  74.92 174.24
Cl 191.31 157.21 113.56
Cl  26.61 182.42  13.17
Cl 187.81 156.43   8.32
Cl   8.87  83.67 108.48
Cl 154.19  15.01 192.00
Cl  28.10  63.98 167.83
Cl  48.31  38.54  76.28
Cl   8.65 175.12  50.54
Cl 124.39  98.98  30.54
Cl  56.59 167.86 123.24
Cl  99.42  70.90  47.94
Cl 180.17 135.50 193.38
Cl  76.77 132.13 155.22
Cl  77.90  42.05  86.26
Cl 151.98 105.84  45.66
Cl   5.84 148.03 153.32
Cl  81.64  11.47 164.30
Cl 110.82  33.98 178.17
Cl 116.78 181.73 111.33
Cl 193.48 171.11 121.72
Cl 108.46  34.53 148.47
Cl  50.33 139.46 122.19
Cl 147.01 198.56  15.02
Cl  10.53   6.74 135.90
Cl  83.97 191.54 121.60
Cl  48.34  64.27 113.96
Cl  31.26  35.52  32.21
Cl  57.78  99.06 152.79
Cl  89.67 190.81 202.37
Cl 133.45 193.24 137.72
Cl 150.10 137.74 200.87
Cl   0.16   8.99 177.48
Cl 129.48 158.50 114.70
Cl  33.63  81.64 124.90
Cl 188.23 119.76   1.79
Cl  11.36 139.46  69.55
Cl 152.85 102.19  98.62
Cl  89.89 101.40 163.08
Cl 170.62  69.02 116.89
Cl  63.77 171.47 145.93
Cl 173.30 108.92  35.72
Cl 170.71 137.50  52.04
Cl 125.98  30.56 117.64
Cl  46.57 151.85  57.94
Cl 183.92  40.82  18.39
Cl  18.26 105.34  71.81
Cl 156.97 131.55 183.92
Cl  46.34  48.98  19.52
Cl 202.41  36.63  89.31
Cl 117.55  47.47 169.17
Cl  88.73  90.46   7.89
Cl  21.30 186.92   9.76
Cl 170.22  45.61 101.89
Cl  76.39 163.03 100.12
Cl 159.09 107.75  12.53
Cl  45.90   4.37  20.98
Cl 100.79  99.16 157.23
Cl  97.54  63.58  72.51
Cl 196.06  65.23  10.58
Cl 152.06 165.47 149.70
Cl  76.70 147.11  60.67
Cl  76.41  51.50 159.01
Cl 117.71 130.76 112.60
Cl  96.04 113.91  32.15
Cl 112.63 138.58 144.33
Cl  36.75 139.65  53.06
Cl 146.18  11.09  28.84
Cl  16.87  41.30  68.72
Cl  66.20  22.06 177.92
Cl  34.74 125.25  96.80
Cl 174.51 185.12  95.43
Cl  80.85 174.14 136.26
Cl 127.95 147.48  38.42
Cl 183.48 144.25  81.38
Cl   1.69 109.45  10.37
Cl 120.32   6.85 155.15
Cl 187.72 135.23  43.50
Cl 202.10 187.43  88.30
Cl 190.67  35.61 115.67
Cl 159.18  44.25   2.65
Cl  15.65  80.80   1.64
Cl  61.35 177.97  33.95
Cl  24.88 192.65  75.43
Cl  55.38 182.51 180.35
Cl 107.49  61.25 186.54
Cl 190.28  54.28 165.08
Cl 106.25  89.61 126.78
Cl 139.23 124.24  23.19
Cl 147.88 153.05 143.19
Cl  98.04 174.25  92.59
Cl 201.39  47.58  64.80
Cl 149.11 167.87   5.25
Cl 141.46 197.72  52.69
Cl   5.48 179.08  38.59
Cl  32.92  39.48  94.62
Cl 104.85  27.44 183.21
Cl  18.81 192.80  60.96
Cl 132.66 143.05 183.25
Cl  86.03 145.34  36.57
Cl 121.88 123.85 120.66
Cl  76.12  57.51 126.59
Cl  56.73 148.06 109.68
Cl 164.53  64.35  52.41
Cl  98.26 194.88  65.12
Cl  24.66  95.20  95.26
Cl  74.74  16.35  71.21
Cl 124.21  17.42 116.89
Cl  32.73  18.39 171.99
Cl 190.57 145.04  33.12
Cl 102.39  97.17  96.94
Cl 145.33 143.28  59.96
Cl 127.87 113.05  81.96
Cl 184.80  68.11 190.17
Cl  58.75  71.10  95.39
Cl  27.64 135.78 173.36
Cl 169.28  65.18  98.85
Cl 193.75  40.52 110.84
Cl 111.09   5.75 118.72
Cl  26.79  21.72 104.59
Cl 159.56   6.46  52.48
Cl 113.08  57.12 189.87
Cl  27.26  82.46  15.78
Cl 146.33  20.63  43.65
Cl  37.85  87.41 130.00
Cl 129.77  41.66  30.65
Cl  42.70 162.51  51.58
Cl 115.28 117.20 155.00
Cl  27.44 176.80 188.99
Cl  11.95 192.02  97.97
Cl 116.26  31.87 138.09
Cl  48.89   3.69  94.54
Cl  13.40  77.24  54.92
Cl 188.38  36.97  69.04
Cl  35.75  48.11 111.20
Cl  20.53 179.91  63.19
Cl 104.45  88.26 191.67
Cl 141.13  72.13 124.20
Cl 193.94 184.99  14.59
Cl  85.11 165.93 198.80
Cl   5.45  15.91  61.73
Cl  67.95  25.49  66.64
Cl   0.45  88.38  85.47
Cl  32.74  88.91 156.48
Cl  28.86 190.79  47.42
Cl 158.44 178.22 183.67
Cl  80.28 150.86 127.09
Cl  43.33  31.75 151.46
Cl 162.24 123.09  70.32
Cl   4.53 119.22  94.37
Cl 174.76  59.43  12.83
Cl  83.19 119.72 167.84
Cl 152.32 163.79 200.41
Cl 147.49   8.93   9.71
Cl 137.85  60.46  60.22
Cl 182.24 186.77  13.95
Cl  37.13 198.27 158.95
Cl 156.30 108.78 193.05
Cl 166.34 197.45 156.31
Cl 173.67  93.44  33.59
Cl  44.41 106.55  40.22
Cl 154.72 137.37 179.10
Cl 146.27  11.41  56.54
Cl  93.39  75.07 169.71
Cl  96.74 189.93 158.40
Cl 175.07  45.90 190.54
Cl 139.08  47.00  26.45
Cl  17.19 116.02  11.96
Cl 139.42 198.98 164.45
Cl 148.54 170.25 133.80
Cl 123.19 113.24   5.93
Cl 121.24  88.43 167.73
Cl 163.38  33.02 168.74
Cl  60.60 100.89  99.53
Cl  75.30 118.02 141.94
Cl 172.43  83.68 131.30
Cl 161.85  74.20  79.38
Cl 153.11  57.05  70.79
Cl  79.15 130.69 193.30
Cl  37.26  97.21 192.70
Cl 182.03 192.59 120.38
Cl  68.56 146.40  46.42
Cl 156.94 165.87 181.96
Cl 106.94  98.79 176.85
Cl 107.66 184.76  47.12
Cl  68.03 121.66  98.68
Cl  41.97  88.73  42.97
Cl   6.70 199.40 185.55
Cl  99.79  10.69  89.02
Cl  30.81 113.93 177.60
Cl 144.19 165.68  15.54
Cl  42.46 128.47  77.01
Cl  42.33  38.93 139.08
Cl 151.17  77.77  70.72
Cl 145.58  23.26 113.16
Cl  25.83 118.10 116.57
Cl  97.27  92.26  98.02
Cl 125.14  66.77 147.99
Cl  69.86  88.03 192.21
Cl  76.62  23.67  70.99
Cl  67.59 185.85   1.13
Cl  43.82  49.13  70.51
Cl  53.75 148.59  31.10
Cl 146.50 113.06 156.97
Cl 112.37 160.65  97.50
Cl  57.12 142.24 170.52
Cl  27.11 196.18   9.22
Cl   6.44 104.14 102.14
Cl 191.41 196.22  22.28
Cl  25.27 169.76 198.82
Cl  74.77  63.04  10.38
Cl  23.84 129.26  86.60
Cl  66.64   5.78 112.15
Cl  85.54  10.25  25.52
Cl 154.62 132.01  44.17
Cl  93.19  22.82  26.30
Cl  90.20 111.24 131.78
Cl 102.20 183.61 123.70
Cl 201.39  18.20 200.31
Cl 194.56 184.20 156.70
Cl  45.01 175.48  93.49
Cl  92.62   9.62  98.18
Cl 147.44 147.64  25.43
Cl 116.04  37.77 193.17
Cl  33.86   6.87 146.05
Cl 165.33 110.50 159.57
Cl  63.13  55.70  65.31
Cl  42.85 194.29 176.39
Cl   3.98  29.32 111.94
Cl   5.49 174.81 131.61
Cl 186.80 111.09 138.20
Cl  54.62 122.11   5.51
Cl  34.96 185.72 142.58
Cl  37.99 166.58 104.77
Cl  87.32  70.06   7.38
Cl  72.30 105.22 133.52
Cl  27.29  91.80 131.90
Cl  84.30 144.88  70.66
Cl 155.29  62.77 148.84
Cl  24.14  94.93 153.16
Cl 176.02 117.32  52.02
Cl 180.64  23.54 166.99
Cl  43.37   3.47 135.09
Cl  63.50  86.78 181.01
Cl  60.43 195.53 169.67
Cl  26.13  29.55  58.12
Cl 193.19 138.31 152.27
Cl  30.57 145.53  69.64
Cl  47.63 169.93   9.11
Cl 136.85 172.74 110.08
Cl 166.05 179.23 190.46
Cl   0.37 157.27 148.28
Cl  82.16 144.61   6.97
Cl 108.53 120.29 114.54
Cl  45.70  91.44  45.03
Cl 141.51 188.24 174.81
Cl 143.63   8.81 133.22
Na 178.23 187.65 201.12
Na  98.55 101.04  99.10
Na  41.55 125.28  49.54
Na  77.45  95.68  91.48
Na  95.73  98.84 104.63
Na 186.64 145.97 109.30
Na  70.30 142.71 135.48
Na 145.27 163.27   7.90
Na  81.60  53.87 103.25
Na 152.98  64.42  21.11
Na 168.98 119.89   3.28
Na 148.93  43.66  97.66
Na 100.26 101.79  93.68
Na 184.86 182.06 111.30
Na 155.90 152.41 101.27
Na  93.75 101.45  98.35
Na 162.72 201.88 159.86
Na  96.56  96.06 101.64
Na  28.42 109.31  46.64
Na  93.98  94.48 175.62
Na 116.35 136.57 126.67
Na  42.74  77.23 183.65
Na  83.47  29.80 163.21
Na  44.33 100.62  93.69
Na 193.43 131.53  47.46
Na 123.17  73.85 167.75
Na 128.96 111.78  26.10
Na 101.99 165.58 156.57
Na  38.67 119.36  94.80
Na  22.73  35.95  29.66
Na 183.38 143.75 150.48
Na  50.78 176.66 164.02
Na 194.83 113.65 147.78
Na  31.97  31.44 115.74
Na  30.47  80.23  20.03
Na 194.31 147.56  75.69
Na 169.49  98.73  42.13
Na 157.37  83.21  70.96
Na   1.91  97.62 170.40
Na  53.01 111.52 174.61
Na  59.10 148.57  43.32
Na  57.99 146.14  30.99
Na 140.18 133.47 115.41
Na  25.53 195.31  74.68
Na  97.03 196.91  30.84
Na 145.99  35.69 166.10
Na 116.49  31.96  69.67
Na  39.34  41.07  93.54
Na 141.26 183.92 190.67
Na  30.45 109.18   8.52
Na  90.34  72.70 179.78
Na 151.17 170.26 179.15
Na 186.23  11.66 120.31
Na   9.06  91.72  66.69
Na 159.90 167.61   3.70
Na  57.73 195.36 170.18
Na 158.61  92.57  95.83
Na  81.03  22.71  71.30
Na  99.97 111.77  87.55
Na  27.39 171.87 182.19
Na   7.87 132.67 134.74
Na 140.31  30.55  29.29
Na 108.35  73.15  14.96
Na  91.64  45.87 152.05
Na  59.97 185.62 169.03
Na 172.00  90.54  31.49
Na  22.57  97.08 153.72
Na  91.37  52.93 168.24
Na  47.27 160.84   1.01
Na 171.37 115.93  21.21
Na 190.63 168.98 151.21
Na 140.18 172.52  40.06
Na  30.08  52.65 163.64
Na 101.01  27.41 147.94
Na  32.91 142.25  67.19
Na 193.74  25.42 135.81
Na  12.74  97.01 177.10
Na 156.63 141.54  52.92
Na  47.53  33.32 103.91
Na  44.83  18.07  37.75
Na   3.80 191.53 174.26
Na 119.37  32.25 101.55
Na  39.22  82.82  87.90
Na  75.40 139.17 149.40
Na 196.99 198.91 189.12
Na 115.71  26.79 200.62
Na   8.93  74.45  18.64
Na  18.83 193.06 148.82
Na 133.80  21.39  63.25
Na 136.96  79.15 114.00
Na  67.24  76.67 191.15
Na  68.26  60.12   6.42
Na  69.45  51.78  22.43
Na  12.94  31.42 179.54
Na  82.43  15.21  68.52
Na 149.32   5.83  33.10
Na  65.23 140.08  17.57
Na 198.19 148.13 180.77
Na  90.30 128.02 177.46
Na 142.78 114.26 146.63
Na  38.79 139.95  26.03
Na  73.74  81.04 183.16
Na  49.02 138.97  76.48
Na  16.33  35.63  67.57
Na 138.32 152.05  23.28
Na 173.06 113.51  43.84
Na  43.24  14.21  22.69
Na 152.32 152.62 147.90
Na  33.53 195.40   1.34
Na  89.92  95.75 156.58
Na  94.80  27.99  36.09
Na 161.94 120.19  85.21
Na 113.57 172.87  21.90
Na  85.94   9.88  31.77
Na 174.65 109.74 156.06
Na  28.82  60.13  23.43
Na 156.94 182.91  68.07
Na  57.40 191.25 138.95
Na 197.13 102.73  39.33
Na  91.36  12.25 110.93
Na  63.19  34.52  21.14
Na  61.62  26.63 110.09
Na  92.17  41.21  78.29
Na 154.24 150.40  54.42
Na 110.40 165.32  61.47
Na 156.51  44.14  90.79
Na  57.55 198.02  20.76
Na  56.59 171.45  32.18
Na  58.00 170.33 109.35
Na 107.40  50.22 108.86
Na  99.46 135.54 199.75
Na 111.21  53.47  82.32
Na  59.48 122.48  74.78
Na  79.12 190.65 121.67
Na   9.07 160.88   6.15
Na  73.88  74.31 195.72
Na  64.99 131.72  45.41
Na  33.65   0.96   4.48
Na  62.63 121.49 161.55
Na  38.64 120.84 159.55
Na   9.44  86.84  95.36
Na 115.79  36.50 107.79
Na 143.20  85.73 152.75
Na 113.27  49.33  16.52
Na 178.69  33.21 136.01
Na  21.69  84.10  13.12
Na  51.76 128.90   1.12
Na 146.74 132.69 185.28
Na 174.96 168.35   2.99
Na 117.79 160.79 140.21
Na  32.34 137.97  55.33
Na 128.74  86.50  64.80
Na  48.40 178.64   8.59
Na 149.48 195.36  23.50
Na  22.08  25.13 196.72
Na 191.03  73.34 195.02
Na 101.81 109.69  55.97
Na 201.68 141.53  30.35
Na 108.10 121.94 102.93
Na 103.28  25.84 169.18
Na 104.77 177.29 126.12
Na  95.89  91.58 100.22
Na 148.56 130.04   2.15
Na  51.74   9.96  93.28
Na   9.03 172.56  83.51
Na 128.46 135.35  74.52
Na  73.66 182.83  77.35
Na 128.34 194.45   7.27
Na  58.89  31.26 180.05
Na  37.52  43.06 162.21
Na 105.55  97.70  87.15
Na 108.33 182.25 150.61
Na  58.42 120.87  50.83
Na 136.10  14.60   8.20
Na 156.54 120.64  20.09
Na 196.14 197.28 139.80
Na  88.56 183.81  81.48
Na 172.48   1.44 190.46
Na  48.10  36.15 123.44
Na  87.15 103.77  94.37
Na 114.66 132.37  19.47
Na  34.96 185.45 140.02
Na 113.34  54.61 185.95
Na 198.49 169.05 145.82
Na 137.25  76.78 130.53
Na  56.13  37.11  54.54
Na 164.88  15.09 141.45
Na  42.45 144.61 158.37
Na 100.43  98.86  95.39
Na 101.58 186.20 100.20
Na 187.62 137.15 177.67
Na 201.85 127.13 139.25
Na 147.50  74.22 201.38
Na  47.32  47.02 137.66
Na 127.47 102.59  83.58
Na  23.01  88.96  36.80
Na 161.36 197.28 134.24
Na 107.80 134.44 139.54
Na 136.20 104.58  21.70
Na 123.50  12.58 134.83
Na 189.16  26.04 116.21
Na  41.84  29.43  49.49
Na   9.87 146.08 140.69
Na  83.17  59.73 143.17
Na 186.61  59.05 163.97
Na 192.62  31.08 104.70
Na 196.24  23.37  95.52
Na 112.69  85.74 102.48
Na  66.41  88.70 144.93
Na   0.31 110.54  14.49
Na 153.68 127.70  25.26
Na 157.35  97.41   3.35
Na 109.80  42.54  28.52
Na 158.76  85.02  91.26
Na 198.46 128.13 178.81
Na 185.09  66.85  17.09
Na 129.37 108.89 144.22
Na 137.70 153.55 172.18
Na 121.29  91.87  58.49
Na  34.18 178.76 171.04
Na  26.28  37.71  35.31
Na  71.02 157.24 176.02
Na 153.60 171.91 144.38
Na  98.43 147.80  39.90
Na 109.77 196.14 159.56
Na  82.35  67.36  57.57
Na 172.78 102.24 171.61
Na  15.61 201.33  83.59
Na 119.49 112.22 161.71
Na  47.08  70.02  90.95
Na 201.96   2.06 179.49
Na  25.18  21.26 172.24
Na   4.38 177.82   8.42
Na 198.07 129.03 190.07
Na 180.94  79.12 140.00
Na  35.97  47.20 113.62
Na 122.44  20.67 163.75
Na  62.06  82.79  36.78
Na  15.32  37.04 200.68
Na  30.93 172.55  31.14
Na  12.71 113.02 137.88
Na  61.52  94.10 186.28
Na  79.63  15.96 101.04
Na 184.37 118.78  67.75
Na 149.15 112.29 132.36
Na 119.78 106.43 168.65
Na 109.97 140.95 166.21
Na 191.53  87.50  94.51
Na 171.94  67.61  75.39
Na  29.63 122.60  78.41
Na 131.77  63.36 168.56
Na  33.93 123.97  34.18
Na  75.34  44.30  70.85
Na 148.90  87.41 113.22
Na  31.93  91.86 128.68
Na  91.85  24.60 182.25
Na   5.27  37.41 120.37
Na 110.46 197.65 114.47
Na  22.91  86.52  98.29
Na  37.21  57.74 126.55
Na  59.87  22.13 198.71
Na  79.22  15.73  60.98
Na 140.17  15.61  80.40
Na 133.18 174.77  15.19
Na 129.60 198.43 166.07
Na  56.09 110.25  17.42
Na   5.46  26.66  15.27
Na 180.45  53.63  13.77
Na  85.10  17.84  20.58
Na 144.35  62.84 150.83
Na  87.47  73.84 194.25
Na 128.93 123.59 113.93
Na  84.10 147.30  36.36
Na   6.95   5.45 166.99
Na  36.51  51.62   8.82
Na 201.51 172.98 100.06
Na 148.39 152.63 183.94
Na  21.98 127.90   6.65
Na  61.31  71.96  97.05
Na  95.15 101.36 101.69
Na 132.29 132.47  51.93
Na  22.21 131.73 176.66
Na 101.15  97.32 159.12
Na  78.65 178.92  82.41
Na  52.10  82.13  73.27
Na 161.82 196.13 183.99
Na 114.73 120.65 129.90
Na  83.99  32.37  25.04
Na   5.49 154.15 147.91
Na 197.95 105.51   3.58
Na 200.66 135.40  82.03
Na  64.63  68.88 117.69
Na 185.01  43.84   6.50
Na  83.00 145.30  72.95
Na  38.73  88.60 132.33
Na 135.82 162.58  29.98
Na  11.23  84.80   9.72
Na  97.66   9.97  87.31
Na  45.40  50.36 175.83
Na  34.49  70.21  38.99
Na 145.26  18.22  37.16
Na  18.60  53.09 104.18
Na 120.99 186.29  41.24
Na 108.02 197.38 139.03
Na  21.79 140.07 179.18
Na  13.40 165.83 157.02
Na  92.80  21.41 139.23
Na  47.33  90.86 182.35
Na  39.56  37.68 165.11
Na 121.63 200.70  78.41
Na 190.72 188.49  22.82
Na 170.93 102.09 180.99
Na  53.18 189.63  20.78
Na  94.89  24.17 116.68
Na 133.83 169.47 105.88
Na  55.28 179.12 115.01
Na 125.79 193.26 176.73
Na  89.59 114.93 137.61
Na 114.82  51.84 165.29
Na   8.15  10.84 137.54
Na  30.49 190.69  41.92
Na 108.35 181.25   3.44
Na 198.43 162.79  92.24
Na 154.43  72.45  57.34
Na 155.52  79.82  11.14
Na 165.85  18.41 147.76
Na 160.51  36.14  79.75
Na 128.06  60.67  59.90
Na 143.65 184.34 175.85
Na 143.49  98.33 171.56
Na 181.76 148.66 121.34
Na 112.74  57.34  53.23
Na 178.71 135.59  28.22
Na  50.40  50.38  20.05
Na  62.72 173.84  36.01
Na 164.66  17.54  72.82
Na  32.96 181.87 192.06
Na 133.68 180.87 180.77
Na  45.04  56.78 171.86
Na 115.47 113.23  55.11
Na 115.15  48.41 178.17
Na 103.99 154.35 109.67
Na 184.15 198.60 140.07
Na 199.40 168.89  38.66
Na 135.37 165.36 118.98
Na 113.79 109.21 190.82
Na 103.76 116.45  24.27
Na 102.60 100.19  91.14
Na  49.01 102.72  48.26
Na 154.89 200.05  52.49
Na 155.90 182.37 117.21
Na  36.70  11.22 144.43
Na 191.36 119.05  89.28
Na  50.91  49.20 102.22
Na 178.71  42.64 110.58
Na  77.34 118.86   7.41
Na 165.39 150.34 172.99
Na 161.32 142.61 132.24
Na  67.05 174.14 118.84
Na 182.36 199.48 119.75
Na  17.53 130.57  74.87
Na  95.65  32.60 188.66
Na 152.05  75.74  65.40
Na 113.89  72.82  14.93
Na   4.21 199.40  44.48
Na  96.35  93.34 178.38
Na 187.14 141.46  65.42
Na  89.47  92.57   6.02
Na 123.63  25.28 171.02
Na 151.54 167.40 171.71
Na 150.30   3.27 108.74
Na 103.69  79.94 156.24
Na 192.25  66.05 194.01
Na  47.21 134.91 130.74
Na  70.03  58.43 174.74
Na 108.19 141.44 136.77
Na  55.67 104.81 150.17
Na 132.75  39.84 130.89
Na 114.82 159.75  81.18
Na  53.99 174.09  66.33
Na 179.63 190.02 178.31
Na  41.80  80.52  81.06
Na 140.52  23.72 105.20
Na 183.05 174.16  50.40
Na  48.10 186.05 104.94
Na  85.52 198.54 166.28
Na  40.92  70.16 157.32
Na 134.89 140.40  40.52
Na  44.43 137.05  10.05
Na 125.17  75.24 141.67
Na  40.07  15.88 158.39
Na  99.07  91.39 103.66
Na  89.95 103.69  97.30
Na  93.61  95.16 103.11
Na 106.63 192.06 163.73
Na 118.27 136.96 122.15
Na 180.92 109.86 125.48
Na  14.75 120.42   3.83
Na  30.71  66.76  70.48
Na 101.44  13.66  85.79
Na 146.57 166.58 138.45
Na 185.19  57.53  35.49
Na  21.54 167.75  51.17
Na  28.36 105.96 159.05
Na 186.44 196.74 113.25
Na 138.77 142.20 131.23
Na 180.98 156.23  66.20
Na 169.37 165.20 177.43
Na  61.58 108.77  49.81
Na  78.07  32.23 117.73
Na 113.85   7.59 106.51
Na  22.49 124.84  24.54
Na 163.16  10.42  56.31
Na 161.16 106.16 161.49
Na 195.03 156.91 190.07
Na 143.10  47.99 174.67
Na  54.93 195.99  79.77
Na  51.72 188.39 109.32
Na  85.91 132.86 125.10
Na  17.86  80.49 105.68
Na 192.16 197.34  12.15
Na   3.00  71.53 162.40
Na  78.45  15.29 188.50
Na  85.56  13.65  77.20
Na  94.63 183.02   5.65
Na 191.54 150.55  28.23
Na  99.48  90.85  98.94
Na  78.18  48.13   0.80
Na  69.64 102.27 107.18
Na  87.15 167.37 198.04
Na  68.41 192.73 187.09
Na 181.99  26.19  52.29
Na 198.50 168.19 119.11
Na  22.03   2.31 173.86
Na 150.71 105.84 178.10
Na 200.15  73.56  37.67
Na  78.10  92.53 164.60
Na  43.17 161.56 108.98
Na 183.30 132.85 198.90
Na  52.15  58.11 110.91
Na 199.80 187.49  90.02
Na  12.95 126.11 201.37
Na 197.68 180.69  18.13
Na  80.34 174.98  23.53
Na 137.93  71.52 120.31
Na 196.29 143.64 115.36
Na  20.29  36.43  52.11
Na  95.90  98.97 189.27
Na 160.68  17.92 194.67
Na 108.55 165.43 109.66
Na 130.41  38.12  33.90
Na 176.06 142.32  78.87
Na  98.88 143.12  45.15
Na 135.01  45.05   4.71
Na 120.67 149.61  59.63
Na  77.44 125.50 192.87
Na  94.74 170.73  96.98
Na  19.89  97.62 117.00
Na 176.21 150.25  54.82
Na 193.00 170.62 124.24
Na  50.18  12.89 197.81
Na  52.71  38.09 152.71
Na  13.13  46.51 125.92
Na 155.72 118.35  66.47
Na 115.47  65.99 106.11
Na 156.88  11.72  28.71
Na 129.03 158.87  98.09
Na 103.37  41.59 124.53
Na   6.46  76.34 129.30
Na 150.52  14.61 196.50
Na 151.73 158.98 201.89
Na 104.65 143.45  85.00
Na  55.97 112.26 183.54
Na   8.56 122.92  69.40
Na  84.27 169.00 132.26
Na  47.74 183.88 152.72
Na  87.95  89.15  12.73
Na  31.69 110.40 126.85
Na 167.94 137.81  48.31
Na 182.87  24.76 165.84
Na  36.81  84.51 114.76
Na  44.11  86.76  47.71
Na  60.59 132.80 108.48
Na 180.34 190.58  20.00
Na  48.89  77.57 195.16
Na 194.26  59.39 186.31
Na  93.49  75.03 174.50
Na  99.38 103.85  89.50
Na 144.30 142.03 154.47
Na  34.32  23.49 197.13
Na  98.55   4.99 171.48
Na  16.16 162.36  83.91
Na 194.07 147.26  94.50
Na 104.82 145.43  33.53
Na 158.43   0.24  56.74
Na  20.69 115.47  94.87
Na 127.35 147.23 161.95
Na  85.03 134.70 151.62
Na  41.86 140.99 186.66
Na 146.72  31.20  44.70
Na 178.25   2.64 151.11
